unknown system                          
   1.00000000000000     
     5.431010    0.000000    0.000000
     0.000000    5.431010    0.000000
     0.000000    0.000000    5.431010
   Si
     8
Direct
  0.000000  0.000000  0.000000
  0.000000  0.500000  0.500000
  0.500000  0.000000  0.500000
  0.500000  0.500000  0.000000
  0.250000  0.250000  0.250000
  0.250000  0.750000  0.750000
  0.750000  0.250000  0.750000
  0.750000  0.750000  0.250000
 
   48   48   48
 -30.522     -24.339     -7.6780      14.573      36.430      52.905      61.406      62.039      56.965      49.246    
  41.192      33.621      26.951      21.357      16.841      13.295      10.561      8.4763      6.8991      5.7169    
  4.8458      4.2248      3.8108      3.5743      3.4975      3.5743      3.8108      4.2248      4.8458      5.7169    
  6.8991      8.4763      10.561      13.295      16.841      21.357      26.951      33.621      41.192      49.246    
  56.965      62.039      61.406      52.905      36.430      14.573     -7.6780     -24.339     -24.339     -18.449    
 -2.5956      18.517      39.141      54.505      62.160      62.263      56.949      49.194      41.164      33.628    
  26.990      21.422      16.922      13.384      10.652      8.5665      6.9868      5.8017      4.9279      4.3046    
  3.8890      3.6514      3.5743      3.6514      3.8890      4.3046      4.9279      5.8017      6.9868      8.5665    
  10.652      13.384      16.922      21.422      26.990      33.628      41.164      49.194      56.949      62.263    
  62.160      54.505      39.141      18.517     -2.5956     -18.449     -7.6780     -2.5956      11.031      29.013    
  46.259      58.598      63.976      62.689      56.787      48.987      41.049      33.629      27.097      21.609    
  17.161      13.650      10.928      8.8409      7.2548      6.0615      5.1798      4.5500      4.1295      3.8890    
  3.8108      3.8890      4.1295      4.5500      5.1798      6.0615      7.2548      8.8409      10.928      13.650    
  17.161      21.609      27.097      33.629      41.049      48.987      56.787      62.689      63.976      58.598    
  46.259      29.013      11.031     -2.5956      14.573      18.517      29.013      42.615      55.180      63.391    
  65.747      62.722      56.212      48.495      40.769      33.576      27.243      21.904      17.552      14.094    
  11.394      9.3104      7.7169      6.5122      5.6186      4.9784      4.5500      4.3046      4.2248      4.3046    
  4.5500      4.9784      5.6186      6.5122      7.7169      9.3104      11.394      14.094      17.552      21.904    
  27.243      33.576      40.769      48.495      56.212      62.722      65.747      63.391      55.180      42.615    
  29.013      18.517      36.430      39.141      46.259      55.180      62.822      66.813      66.244      61.746    
  54.989      47.576      40.231      33.410      27.389      22.281      18.084      14.717      12.061      9.9917    
  8.3953      7.1794      6.2719      5.6186      5.1798      4.9279      4.8458      4.9279      5.1798      5.6186    
  6.2719      7.1794      8.3953      9.9917      12.061      14.717      18.084      22.281      27.389      33.410    
  40.231      47.576      54.989      61.746      66.244      66.813      62.822      55.180      46.259      39.141    
  52.905      54.505      58.598      63.391      66.813      67.376      64.688      59.464      53.000      46.132    
  39.367      33.079      27.495      22.715      18.744      15.518      12.941      10.908      9.3207      8.0993    
  7.1794      6.5122      6.0615      5.8017      5.7169      5.8017      6.0615      6.5122      7.1794      8.0993    
  9.3207      10.908      12.941      15.518      18.744      22.715      27.495      33.079      39.367      46.132    
  53.000      59.464      64.688      67.376      66.813      63.391      58.598      54.505      61.406      62.160    
  63.976      65.747      66.244      64.688      61.062      56.028      50.239      44.149      38.155      32.554    
  27.534      23.185      19.521      16.501      14.051      12.089      10.534      9.3207      8.3953      7.7169    
  7.2548      6.9868      6.8991      6.9868      7.2548      7.7169      8.3953      9.3207      10.534      12.089    
  14.051      16.501      19.521      23.185      27.534      32.554      38.155      44.149      50.239      56.028    
  61.062      64.688      66.244      65.747      63.976      62.160      62.039      62.263      62.689      62.722    
  61.746      59.464      56.028      51.715      46.828      41.697      36.624      31.838      27.495      23.679    
  20.413      17.676      15.418      13.575      12.089      10.908      9.9917      9.3104      8.8409      8.5665    
  8.4763      8.5665      8.8409      9.3104      9.9917      10.908      12.089      13.575      15.418      17.676    
  20.413      23.679      27.495      31.838      36.624      41.697      46.828      51.715      56.028      59.464    
  61.746      62.722      62.689      62.263      56.965      56.949      56.787      56.212      54.989      53.000    
  50.239      46.828      42.972      38.905      34.842      30.961      27.389      24.201      21.428      19.063    
  17.074      15.418      14.051      12.941      12.061      11.394      10.928      10.652      10.561      10.652    
  10.928      11.394      12.061      12.941      14.051      15.418      17.074      19.063      21.428      24.201    
  27.389      30.961      34.842      38.905      42.972      46.828      50.239      53.000      54.989      56.212    
  56.787      56.949      49.246      49.194      48.987      48.495      47.576      46.132      44.149      41.697    
  38.905      35.923      32.904      29.977      27.243      24.769      22.584      20.689      19.063      17.676    
  16.501      15.518      14.717      14.094      13.650      13.384      13.295      13.384      13.650      14.094    
  14.717      15.518      16.501      17.676      19.063      20.689      22.584      24.769      27.243      29.977    
  32.904      35.923      38.905      41.697      44.149      46.132      47.576      48.495      48.987      49.194    
  41.192      41.164      41.049      40.769      40.231      39.367      38.155      36.624      34.842      32.904    
  30.908      28.947      27.097      25.409      23.905      22.584      21.428      20.413      19.521      18.744    
  18.084      17.552      17.161      16.922      16.841      16.922      17.161      17.552      18.084      18.744    
  19.521      20.413      21.428      22.584      23.905      25.409      27.097      28.947      30.908      32.904    
  34.842      36.624      38.155      39.367      40.231      40.769      41.049      41.164      33.621      33.628    
  33.629      33.576      33.410      33.079      32.554      31.838      30.961      29.977      28.947      27.935    
  26.990      26.145      25.409      24.769      24.201      23.679      23.185      22.715      22.281      21.904    
  21.609      21.422      21.357      21.422      21.609      21.904      22.281      22.715      23.185      23.679    
  24.201      24.769      25.409      26.145      26.990      27.935      28.947      29.977      30.961      31.838    
  32.554      33.079      33.410      33.576      33.629      33.628      26.951      26.990      27.097      27.243    
  27.389      27.495      27.534      27.495      27.389      27.243      27.097      26.990      26.951      26.990    
  27.097      27.243      27.389      27.495      27.534      27.495      27.389      27.243      27.097      26.990    
  26.951      26.990      27.097      27.243      27.389      27.495      27.534      27.495      27.389      27.243    
  27.097      26.990      26.951      26.990      27.097      27.243      27.389      27.495      27.534      27.495    
  27.389      27.243      27.097      26.990      21.357      21.422      21.609      21.904      22.281      22.715    
  23.185      23.679      24.201      24.769      25.409      26.145      26.990      27.935      28.947      29.977    
  30.961      31.838      32.554      33.079      33.410      33.576      33.629      33.628      33.621      33.628    
  33.629      33.576      33.410      33.079      32.554      31.838      30.961      29.977      28.947      27.935    
  26.990      26.145      25.409      24.769      24.201      23.679      23.185      22.715      22.281      21.904    
  21.609      21.422      16.841      16.922      17.161      17.552      18.084      18.744      19.521      20.413    
  21.428      22.584      23.905      25.409      27.097      28.947      30.908      32.904      34.842      36.624    
  38.155      39.367      40.231      40.769      41.049      41.164      41.192      41.164      41.049      40.769    
  40.231      39.367      38.155      36.624      34.842      32.904      30.908      28.947      27.097      25.409    
  23.905      22.584      21.428      20.413      19.521      18.744      18.084      17.552      17.161      16.922    
  13.295      13.384      13.650      14.094      14.717      15.518      16.501      17.676      19.063      20.689    
  22.584      24.769      27.243      29.977      32.904      35.923      38.905      41.697      44.149      46.132    
  47.576      48.495      48.987      49.194      49.246      49.194      48.987      48.495      47.576      46.132    
  44.149      41.697      38.905      35.923      32.904      29.977      27.243      24.769      22.584      20.689    
  19.063      17.676      16.501      15.518      14.717      14.094      13.650      13.384      10.561      10.652    
  10.928      11.394      12.061      12.941      14.051      15.418      17.074      19.063      21.428      24.201    
  27.389      30.961      34.842      38.905      42.972      46.828      50.239      53.000      54.989      56.212    
  56.787      56.949      56.965      56.949      56.787      56.212      54.989      53.000      50.239      46.828    
  42.972      38.905      34.842      30.961      27.389      24.201      21.428      19.063      17.074      15.418    
  14.051      12.941      12.061      11.394      10.928      10.652      8.4763      8.5665      8.8409      9.3104    
  9.9917      10.908      12.089      13.575      15.418      17.676      20.413      23.679      27.495      31.838    
  36.624      41.697      46.828      51.715      56.028      59.464      61.746      62.722      62.689      62.263    
  62.039      62.263      62.689      62.722      61.746      59.464      56.028      51.715      46.828      41.697    
  36.624      31.838      27.495      23.679      20.413      17.676      15.418      13.575      12.089      10.908    
  9.9917      9.3104      8.8409      8.5665      6.8991      6.9868      7.2548      7.7169      8.3953      9.3207    
  10.534      12.089      14.051      16.501      19.521      23.185      27.534      32.554      38.155      44.149    
  50.239      56.028      61.062      64.688      66.244      65.747      63.976      62.160      61.406      62.160    
  63.976      65.747      66.244      64.688      61.062      56.028      50.239      44.149      38.155      32.554    
  27.534      23.185      19.521      16.501      14.051      12.089      10.534      9.3207      8.3953      7.7169    
  7.2548      6.9868      5.7169      5.8017      6.0615      6.5122      7.1794      8.0993      9.3207      10.908    
  12.941      15.518      18.744      22.715      27.495      33.079      39.367      46.132      53.000      59.464    
  64.688      67.376      66.813      63.391      58.598      54.505      52.905      54.505      58.598      63.391    
  66.813      67.376      64.688      59.464      53.000      46.132      39.367      33.079      27.495      22.715    
  18.744      15.518      12.941      10.908      9.3207      8.0993      7.1794      6.5122      6.0615      5.8017    
  4.8458      4.9279      5.1798      5.6186      6.2719      7.1794      8.3953      9.9917      12.061      14.717    
  18.084      22.281      27.389      33.410      40.231      47.576      54.989      61.746      66.244      66.813    
  62.822      55.180      46.259      39.141      36.430      39.141      46.259      55.180      62.822      66.813    
  66.244      61.746      54.989      47.576      40.231      33.410      27.389      22.281      18.084      14.717    
  12.061      9.9917      8.3953      7.1794      6.2719      5.6186      5.1798      4.9279      4.2248      4.3046    
  4.5500      4.9784      5.6186      6.5122      7.7169      9.3104      11.394      14.094      17.552      21.904    
  27.243      33.576      40.769      48.495      56.212      62.722      65.747      63.391      55.180      42.615    
  29.013      18.517      14.573      18.517      29.013      42.615      55.180      63.391      65.747      62.722    
  56.212      48.495      40.769      33.576      27.243      21.904      17.552      14.094      11.394      9.3104    
  7.7169      6.5122      5.6186      4.9784      4.5500      4.3046      3.8108      3.8890      4.1295      4.5500    
  5.1798      6.0615      7.2548      8.8409      10.928      13.650      17.161      21.609      27.097      33.629    
  41.049      48.987      56.787      62.689      63.976      58.598      46.259      29.013      11.031     -2.5956    
 -7.6780     -2.5956      11.031      29.013      46.259      58.598      63.976      62.689      56.787      48.987    
  41.049      33.629      27.097      21.609      17.161      13.650      10.928      8.8409      7.2548      6.0615    
  5.1798      4.5500      4.1295      3.8890      3.5743      3.6514      3.8890      4.3046      4.9279      5.8017    
  6.9868      8.5665      10.652      13.384      16.922      21.422      26.990      33.628      41.164      49.194    
  56.949      62.263      62.160      54.505      39.141      18.517     -2.5956     -18.449     -24.339     -18.449    
 -2.5956      18.517      39.141      54.505      62.160      62.263      56.949      49.194      41.164      33.628    
  26.990      21.422      16.922      13.384      10.652      8.5665      6.9868      5.8017      4.9279      4.3046    
  3.8890      3.6514      3.4975      3.5743      3.8108      4.2248      4.8458      5.7169      6.8991      8.4763    
  10.561      13.295      16.841      21.357      26.951      33.621      41.192      49.246      56.965      62.039    
  61.406      52.905      36.430      14.573     -7.6780     -24.339     -30.522     -24.339     -7.6780      14.573    
  36.430      52.905      61.406      62.039      56.965      49.246      41.192      33.621      26.951      21.357    
  16.841      13.295      10.561      8.4763      6.8991      5.7169      4.8458      4.2248      3.8108      3.5743    
  3.5743      3.6514      3.8890      4.3046      4.9279      5.8017      6.9868      8.5665      10.652      13.384    
  16.922      21.422      26.990      33.628      41.164      49.194      56.949      62.263      62.160      54.505    
  39.141      18.517     -2.5956     -18.449     -24.339     -18.449     -2.5956      18.517      39.141      54.505    
  62.160      62.263      56.949      49.194      41.164      33.628      26.990      21.422      16.922      13.384    
  10.652      8.5665      6.9868      5.8017      4.9279      4.3046      3.8890      3.6514      3.8108      3.8890    
  4.1295      4.5500      5.1798      6.0615      7.2548      8.8409      10.928      13.650      17.161      21.609    
  27.097      33.629      41.049      48.987      56.787      62.689      63.976      58.598      46.259      29.013    
  11.031     -2.5956     -7.6780     -2.5956      11.031      29.013      46.259      58.598      63.976      62.689    
  56.787      48.987      41.049      33.629      27.097      21.609      17.161      13.650      10.928      8.8409    
  7.2548      6.0615      5.1798      4.5500      4.1295      3.8890      4.2248      4.3046      4.5500      4.9784    
  5.6186      6.5122      7.7169      9.3104      11.394      14.094      17.552      21.904      27.243      33.576    
  40.769      48.495      56.212      62.722      65.747      63.391      55.180      42.615      29.013      18.517    
  14.573      18.517      29.013      42.615      55.180      63.391      65.747      62.722      56.212      48.495    
  40.769      33.576      27.243      21.904      17.552      14.094      11.394      9.3104      7.7169      6.5122    
  5.6186      4.9784      4.5500      4.3046      4.8458      4.9279      5.1798      5.6186      6.2719      7.1794    
  8.3953      9.9917      12.061      14.717      18.084      22.281      27.389      33.410      40.231      47.576    
  54.989      61.746      66.244      66.813      62.822      55.180      46.259      39.141      36.430      39.141    
  46.259      55.180      62.822      66.813      66.244      61.746      54.989      47.576      40.231      33.410    
  27.389      22.281      18.084      14.717      12.061      9.9917      8.3953      7.1794      6.2719      5.6186    
  5.1798      4.9279      5.7169      5.8017      6.0615      6.5122      7.1794      8.0993      9.3207      10.908    
  12.941      15.518      18.744      22.715      27.495      33.079      39.367      46.132      53.000      59.464    
  64.688      67.376      66.813      63.391      58.598      54.505      52.905      54.505      58.598      63.391    
  66.813      67.376      64.688      59.464      53.000      46.132      39.367      33.079      27.495      22.715    
  18.744      15.518      12.941      10.908      9.3207      8.0993      7.1794      6.5122      6.0615      5.8017    
  6.8991      6.9868      7.2548      7.7169      8.3953      9.3207      10.534      12.089      14.051      16.501    
  19.521      23.185      27.534      32.554      38.155      44.149      50.239      56.028      61.062      64.688    
  66.244      65.747      63.976      62.160      61.406      62.160      63.976      65.747      66.244      64.688    
  61.062      56.028      50.239      44.149      38.155      32.554      27.534      23.185      19.521      16.501    
  14.051      12.089      10.534      9.3207      8.3953      7.7169      7.2548      6.9868      8.4763      8.5665    
  8.8409      9.3104      9.9917      10.908      12.089      13.575      15.418      17.676      20.413      23.679    
  27.495      31.838      36.624      41.697      46.828      51.715      56.028      59.464      61.746      62.722    
  62.689      62.263      62.039      62.263      62.689      62.722      61.746      59.464      56.028      51.715    
  46.828      41.697      36.624      31.838      27.495      23.679      20.413      17.676      15.418      13.575    
  12.089      10.908      9.9917      9.3104      8.8409      8.5665      10.561      10.652      10.928      11.394    
  12.061      12.941      14.051      15.418      17.074      19.063      21.428      24.201      27.389      30.961    
  34.842      38.905      42.972      46.828      50.239      53.000      54.989      56.212      56.787      56.949    
  56.965      56.949      56.787      56.212      54.989      53.000      50.239      46.828      42.972      38.905    
  34.842      30.961      27.389      24.201      21.428      19.063      17.074      15.418      14.051      12.941    
  12.061      11.394      10.928      10.652      13.295      13.384      13.650      14.094      14.717      15.518    
  16.501      17.676      19.063      20.689      22.584      24.769      27.243      29.977      32.904      35.923    
  38.905      41.697      44.149      46.132      47.576      48.495      48.987      49.194      49.246      49.194    
  48.987      48.495      47.576      46.132      44.149      41.697      38.905      35.923      32.904      29.977    
  27.243      24.769      22.584      20.689      19.063      17.676      16.501      15.518      14.717      14.094    
  13.650      13.384      16.841      16.922      17.161      17.552      18.084      18.744      19.521      20.413    
  21.428      22.584      23.905      25.409      27.097      28.947      30.908      32.904      34.842      36.624    
  38.155      39.367      40.231      40.769      41.049      41.164      41.192      41.164      41.049      40.769    
  40.231      39.367      38.155      36.624      34.842      32.904      30.908      28.947      27.097      25.409    
  23.905      22.584      21.428      20.413      19.521      18.744      18.084      17.552      17.161      16.922    
  21.357      21.422      21.609      21.904      22.281      22.715      23.185      23.679      24.201      24.769    
  25.409      26.145      26.990      27.935      28.947      29.977      30.961      31.838      32.554      33.079    
  33.410      33.576      33.629      33.628      33.621      33.628      33.629      33.576      33.410      33.079    
  32.554      31.838      30.961      29.977      28.947      27.935      26.990      26.145      25.409      24.769    
  24.201      23.679      23.185      22.715      22.281      21.904      21.609      21.422      26.951      26.990    
  27.097      27.243      27.389      27.495      27.534      27.495      27.389      27.243      27.097      26.990    
  26.951      26.990      27.097      27.243      27.389      27.495      27.534      27.495      27.389      27.243    
  27.097      26.990      26.951      26.990      27.097      27.243      27.389      27.495      27.534      27.495    
  27.389      27.243      27.097      26.990      26.951      26.990      27.097      27.243      27.389      27.495    
  27.534      27.495      27.389      27.243      27.097      26.990      33.621      33.628      33.629      33.576    
  33.410      33.079      32.554      31.838      30.961      29.977      28.947      27.935      26.990      26.145    
  25.409      24.769      24.201      23.679      23.185      22.715      22.281      21.904      21.609      21.422    
  21.357      21.422      21.609      21.904      22.281      22.715      23.185      23.679      24.201      24.769    
  25.409      26.145      26.990      27.935      28.947      29.977      30.961      31.838      32.554      33.079    
  33.410      33.576      33.629      33.628      41.192      41.164      41.049      40.769      40.231      39.367    
  38.155      36.624      34.842      32.904      30.908      28.947      27.097      25.409      23.905      22.584    
  21.428      20.413      19.521      18.744      18.084      17.552      17.161      16.922      16.841      16.922    
  17.161      17.552      18.084      18.744      19.521      20.413      21.428      22.584      23.905      25.409    
  27.097      28.947      30.908      32.904      34.842      36.624      38.155      39.367      40.231      40.769    
  41.049      41.164      49.246      49.194      48.987      48.495      47.576      46.132      44.149      41.697    
  38.905      35.923      32.904      29.977      27.243      24.769      22.584      20.689      19.063      17.676    
  16.501      15.518      14.717      14.094      13.650      13.384      13.295      13.384      13.650      14.094    
  14.717      15.518      16.501      17.676      19.063      20.689      22.584      24.769      27.243      29.977    
  32.904      35.923      38.905      41.697      44.149      46.132      47.576      48.495      48.987      49.194    
  56.965      56.949      56.787      56.212      54.989      53.000      50.239      46.828      42.972      38.905    
  34.842      30.961      27.389      24.201      21.428      19.063      17.074      15.418      14.051      12.941    
  12.061      11.394      10.928      10.652      10.561      10.652      10.928      11.394      12.061      12.941    
  14.051      15.418      17.074      19.063      21.428      24.201      27.389      30.961      34.842      38.905    
  42.972      46.828      50.239      53.000      54.989      56.212      56.787      56.949      62.039      62.263    
  62.689      62.722      61.746      59.464      56.028      51.715      46.828      41.697      36.624      31.838    
  27.495      23.679      20.413      17.676      15.418      13.575      12.089      10.908      9.9917      9.3104    
  8.8409      8.5665      8.4763      8.5665      8.8409      9.3104      9.9917      10.908      12.089      13.575    
  15.418      17.676      20.413      23.679      27.495      31.838      36.624      41.697      46.828      51.715    
  56.028      59.464      61.746      62.722      62.689      62.263      61.406      62.160      63.976      65.747    
  66.244      64.688      61.062      56.028      50.239      44.149      38.155      32.554      27.534      23.185    
  19.521      16.501      14.051      12.089      10.534      9.3207      8.3953      7.7169      7.2548      6.9868    
  6.8991      6.9868      7.2548      7.7169      8.3953      9.3207      10.534      12.089      14.051      16.501    
  19.521      23.185      27.534      32.554      38.155      44.149      50.239      56.028      61.062      64.688    
  66.244      65.747      63.976      62.160      52.905      54.505      58.598      63.391      66.813      67.376    
  64.688      59.464      53.000      46.132      39.367      33.079      27.495      22.715      18.744      15.518    
  12.941      10.908      9.3207      8.0993      7.1794      6.5122      6.0615      5.8017      5.7169      5.8017    
  6.0615      6.5122      7.1794      8.0993      9.3207      10.908      12.941      15.518      18.744      22.715    
  27.495      33.079      39.367      46.132      53.000      59.464      64.688      67.376      66.813      63.391    
  58.598      54.505      36.430      39.141      46.259      55.180      62.822      66.813      66.244      61.746    
  54.989      47.576      40.231      33.410      27.389      22.281      18.084      14.717      12.061      9.9917    
  8.3953      7.1794      6.2719      5.6186      5.1798      4.9279      4.8458      4.9279      5.1798      5.6186    
  6.2719      7.1794      8.3953      9.9917      12.061      14.717      18.084      22.281      27.389      33.410    
  40.231      47.576      54.989      61.746      66.244      66.813      62.822      55.180      46.259      39.141    
  14.573      18.517      29.013      42.615      55.180      63.391      65.747      62.722      56.212      48.495    
  40.769      33.576      27.243      21.904      17.552      14.094      11.394      9.3104      7.7169      6.5122    
  5.6186      4.9784      4.5500      4.3046      4.2248      4.3046      4.5500      4.9784      5.6186      6.5122    
  7.7169      9.3104      11.394      14.094      17.552      21.904      27.243      33.576      40.769      48.495    
  56.212      62.722      65.747      63.391      55.180      42.615      29.013      18.517     -7.6780     -2.5956    
  11.031      29.013      46.259      58.598      63.976      62.689      56.787      48.987      41.049      33.629    
  27.097      21.609      17.161      13.650      10.928      8.8409      7.2548      6.0615      5.1798      4.5500    
  4.1295      3.8890      3.8108      3.8890      4.1295      4.5500      5.1798      6.0615      7.2548      8.8409    
  10.928      13.650      17.161      21.609      27.097      33.629      41.049      48.987      56.787      62.689    
  63.976      58.598      46.259      29.013      11.031     -2.5956     -24.339     -18.449     -2.5956      18.517    
  39.141      54.505      62.160      62.263      56.949      49.194      41.164      33.628      26.990      21.422    
  16.922      13.384      10.652      8.5665      6.9868      5.8017      4.9279      4.3046      3.8890      3.6514    
  3.5743      3.6514      3.8890      4.3046      4.9279      5.8017      6.9868      8.5665      10.652      13.384    
  16.922      21.422      26.990      33.628      41.164      49.194      56.949      62.263      62.160      54.505    
  39.141      18.517     -2.5956     -18.449     -24.339     -18.449     -2.5956      18.517      39.141      54.505    
  62.160      62.263      56.949      49.194      41.164      33.628      26.990      21.422      16.922      13.384    
  10.652      8.5665      6.9868      5.8017      4.9279      4.3046      3.8890      3.6514      3.5743      3.6514    
  3.8890      4.3046      4.9279      5.8017      6.9868      8.5665      10.652      13.384      16.922      21.422    
  26.990      33.628      41.164      49.194      56.949      62.263      62.160      54.505      39.141      18.517    
 -2.5956     -18.449     -18.449     -11.823      4.0869      24.636      44.284      58.534      65.174      64.504    
  58.691      50.652      42.421      34.719      27.935      22.231      17.607      13.957      11.128      8.9601    
  7.3110      6.0683      5.1464      4.4821      4.0303      3.7598      3.6514      3.6981      3.9049      4.2883    
  4.8758      5.7083      6.8434      8.3609      10.368      13.000      16.413      20.760      26.145      32.573    
  39.874      47.654      55.180      60.434      60.553      53.490      39.132      19.890     0.39241     -13.857    
 -2.5956      4.0869      18.550      36.555      53.179      64.543      68.888      66.717      60.154      51.885    
  43.556      35.792      28.947      23.172      18.464      14.724      11.805      9.5523      7.8279      6.5198    
  5.5420      4.8301      4.3372      4.0303      3.8890      3.9049      4.0821      4.4357      4.9916      5.7880    
  6.8792      8.3405      10.272      12.803      16.080      20.248      25.409      31.570      38.580      46.071    