unknown system                          
   1.00000000000000     
     5.431010    0.000000    0.000000
     0.000000    5.431010    0.000000
     0.000000    0.000000    5.431010
   Si
     8
Direct
  0.000000  0.000000  0.000000
  0.000000  0.500000  0.500000
  0.500000  0.000000  0.500000
  0.500000  0.500000  0.000000
  0.250000  0.250000  0.250000
  0.250000  0.750000  0.750000
  0.750000  0.250000  0.750000
  0.750000  0.750000  0.250000
 
   48   48   48
 -.30521504167E+02 -.24339002711E+02 -.76780167530E+01 0.14573073445E+02 0.36429590474E+02
 0.52905016077E+02 0.61406230762E+02 0.62038889637E+02 0.56965474667E+02 0.49246416413E+02
 0.41191862626E+02 0.33621375669E+02 0.26950867171E+02 0.21357279533E+02 0.16841297518E+02
 0.13294958863E+02 0.10560864960E+02 0.84762705916E+01 0.68990565099E+01 0.57169102658E+01
 0.48458228486E+01 0.42248447423E+01 0.38108176636E+01 0.35742823646E+01 0.34974580458E+01
 0.35742823646E+01 0.38108176636E+01 0.42248447423E+01 0.48458228486E+01 0.57169102658E+01
 0.68990565099E+01 0.84762705916E+01 0.10560864960E+02 0.13294958863E+02 0.16841297518E+02
 0.21357279533E+02 0.26950867171E+02 0.33621375669E+02 0.41191862626E+02 0.49246416413E+02
 0.56965474667E+02 0.62038889637E+02 0.61406230762E+02 0.52905016077E+02 0.36429590474E+02
 0.14573073445E+02 -.76780167530E+01 -.24339002711E+02 -.24339002711E+02 -.18449010485E+02
 -.25955978534E+01 0.18517406103E+02 0.39141241760E+02 0.54505090241E+02 0.62159526364E+02
 0.62262825814E+02 0.56949257650E+02 0.49194273617E+02 0.41163799022E+02 0.33627853085E+02
 0.26990177803E+02 0.21421743553E+02 0.16921795270E+02 0.13383584231E+02 0.10651973554E+02
 0.85664845115E+01 0.69867735309E+01 0.58016920827E+01 0.49278704067E+01 0.43046483285E+01
 0.38889778834E+01 0.36514424925E+01 0.35742823646E+01 0.36514424925E+01 0.38889778834E+01
 0.43046483285E+01 0.49278704067E+01 0.58016920827E+01 0.69867735309E+01 0.85664845115E+01
 0.10651973554E+02 0.13383584231E+02 0.16921795270E+02 0.21421743553E+02 0.26990177803E+02
 0.33627853085E+02 0.41163799022E+02 0.49194273617E+02 0.56949257650E+02 0.62262825814E+02
 0.62159526364E+02 0.54505090241E+02 0.39141241760E+02 0.18517406103E+02 -.25955978534E+01
 -.18449010485E+02 -.76780167530E+01 -.25955978534E+01 0.11030693648E+02 0.29012578647E+02
 0.46258967712E+02 0.58597975473E+02 0.63975626417E+02 0.62689495269E+02 0.56786633009E+02
 0.48986695547E+02 0.41048855877E+02 0.33628919760E+02 0.27097371297E+02 0.21609360976E+02
 0.17161011212E+02 0.13649802518E+02 0.10927636101E+02 0.88409389028E+01 0.72547558488E+01
 0.60614996793E+01 0.51798155089E+01 0.45500204702E+01 0.41294868342E+01 0.38889778834E+01
 0.38108176636E+01 0.38889778834E+01 0.41294868342E+01 0.45500204702E+01 0.51798155089E+01
 0.60614996793E+01 0.72547558488E+01 0.88409389028E+01 0.10927636101E+02 0.13649802518E+02
 0.17161011212E+02 0.21609360976E+02 0.27097371297E+02 0.33628919760E+02 0.41048855877E+02
 0.48986695547E+02 0.56786633009E+02 0.62689495269E+02 0.63975626417E+02 0.58597975473E+02
 0.46258967712E+02 0.29012578647E+02 0.11030693648E+02 -.25955978534E+01 0.14573073445E+02
 0.18517406103E+02 0.29012578647E+02 0.42615208782E+02 0.55180474787E+02 0.63391151686E+02
 0.65746634762E+02 0.62722089288E+02 0.56212459427E+02 0.48495458774E+02 0.40768609585E+02
 0.33576472986E+02 0.27243314942E+02 0.21903791580E+02 0.17552066733E+02 0.14094153510E+02
 0.11394233284E+02 0.93104309012E+01 0.77168975726E+01 0.65121807183E+01 0.56185886166E+01
 0.49784145466E+01 0.45500204702E+01 0.43046483285E+01 0.42248447423E+01 0.43046483285E+01
 0.45500204702E+01 0.49784145466E+01 0.56185886166E+01 0.65121807183E+01 0.77168975726E+01
 0.93104309012E+01 0.11394233284E+02 0.14094153510E+02 0.17552066733E+02 0.21903791580E+02
 0.27243314942E+02 0.33576472986E+02 0.40768609585E+02 0.48495458774E+02 0.56212459427E+02
 0.62722089288E+02 0.65746634762E+02 0.63391151686E+02 0.55180474787E+02 0.42615208782E+02
 0.29012578647E+02 0.18517406103E+02 0.36429590474E+02 0.39141241760E+02 0.46258967712E+02
 0.55180474787E+02 0.62822441785E+02 0.66813378005E+02 0.66244160965E+02 0.61745661594E+02
 0.54989067515E+02 0.47576254101E+02 0.40230984448E+02 0.33410339063E+02 0.27388698105E+02
 0.22281200952E+02 0.18083967621E+02 0.14716721937E+02 0.12061168534E+02 0.99917292581E+01
 0.83953192034E+01 0.71793704499E+01 0.62718835450E+01 0.56185886166E+01 0.51798155089E+01
 0.49278704067E+01 0.48458228486E+01 0.49278704067E+01 0.51798155089E+01 0.56185886166E+01
 0.62718835450E+01 0.71793704499E+01 0.83953192034E+01 0.99917292581E+01 0.12061168534E+02
 0.14716721937E+02 0.18083967621E+02 0.22281200952E+02 0.27388698105E+02 0.33410339063E+02
 0.40230984448E+02 0.47576254101E+02 0.54989067515E+02 0.61745661594E+02 0.66244160965E+02
 0.66813378005E+02 0.62822441785E+02 0.55180474787E+02 0.46258967712E+02 0.39141241760E+02
 0.52905016077E+02 0.54505090241E+02 0.58597975473E+02 0.63391151686E+02 0.66813378005E+02
 0.67375521411E+02 0.64688018477E+02 0.59463747319E+02 0.53000104492E+02 0.46132011425E+02
 0.39367107605E+02 0.33078733175E+02 0.27494770640E+02 0.22715472123E+02 0.18743819562E+02
 0.15517866883E+02 0.12941018613E+02 0.10907685882E+02 0.93207445628E+01 0.80992764726E+01
 0.71793704499E+01 0.65121807183E+01 0.60614996793E+01 0.58016920827E+01 0.57169102658E+01
 0.58016920827E+01 0.60614996793E+01 0.65121807183E+01 0.71793704499E+01 0.80992764726E+01
 0.93207445628E+01 0.10907685882E+02 0.12941018613E+02 0.15517866883E+02 0.18743819562E+02
 0.22715472123E+02 0.27494770640E+02 0.33078733175E+02 0.39367107605E+02 0.46132011425E+02
 0.53000104492E+02 0.59463747319E+02 0.64688018477E+02 0.67375521411E+02 0.66813378005E+02
 0.63391151686E+02 0.58597975473E+02 0.54505090241E+02 0.61406230762E+02 0.62159526364E+02
 0.63975626417E+02 0.65746634762E+02 0.66244160965E+02 0.64688018477E+02 0.61061700332E+02
 0.56027904997E+02 0.50238941070E+02 0.44149115773E+02 0.38154939933E+02 0.32553706153E+02
 0.27533520795E+02 0.23184900886E+02 0.19521152757E+02 0.16500977716E+02 0.14051390331E+02
 0.12088764632E+02 0.10534149711E+02 0.93207445628E+01 0.83953192034E+01 0.77168975726E+01
 0.72547558488E+01 0.69867735309E+01 0.68990565099E+01 0.69867735309E+01 0.72547558488E+01
 0.77168975726E+01 0.83953192034E+01 0.93207445628E+01 0.10534149711E+02 0.12088764632E+02
 0.14051390331E+02 0.16500977716E+02 0.19521152757E+02 0.23184900886E+02 0.27533520795E+02
 0.32553706153E+02 0.38154939933E+02 0.44149115773E+02 0.50238941070E+02 0.56027904997E+02
 0.61061700332E+02 0.64688018477E+02 0.66244160965E+02 0.65746634762E+02 0.63975626417E+02
 0.62159526364E+02 0.62038889637E+02 0.62262825814E+02 0.62689495269E+02 0.62722089288E+02
 0.61745661594E+02 0.59463747319E+02 0.56027904997E+02 0.51715336592E+02 0.46827656224E+02
 0.41697388106E+02 0.36623542632E+02 0.31837652538E+02 0.27494770640E+02 0.23678660145E+02
 0.20413088117E+02 0.17676223448E+02 0.15417550572E+02 0.13575075700E+02 0.12088764632E+02
 0.10907685882E+02 0.99917292581E+01 0.93104309012E+01 0.88409389028E+01 0.85664845115E+01
 0.84762705916E+01 0.85664845115E+01 0.88409389028E+01 0.93104309012E+01 0.99917292581E+01
 0.10907685882E+02 0.12088764632E+02 0.13575075700E+02 0.15417550572E+02 0.17676223448E+02
 0.20413088117E+02 0.23678660145E+02 0.27494770640E+02 0.31837652538E+02 0.36623542632E+02
 0.41697388106E+02 0.46827656224E+02 0.51715336592E+02 0.56027904997E+02 0.59463747319E+02
 0.61745661594E+02 0.62722089288E+02 0.62689495269E+02 0.62262825814E+02 0.56965474667E+02
 0.56949257650E+02 0.56786633009E+02 0.56212459427E+02 0.54989067515E+02 0.53000104492E+02
 0.50238941070E+02 0.46827656224E+02 0.42971900999E+02 0.38904553318E+02 0.34842305010E+02
 0.30961439706E+02 0.27388698105E+02 0.24200658145E+02 0.21427837015E+02 0.19063066553E+02
 0.17074037030E+02 0.15417550572E+02 0.14051390331E+02 0.12941018613E+02 0.12061168534E+02
 0.11394233284E+02 0.10927636101E+02 0.10651973554E+02 0.10560864960E+02 0.10651973554E+02
 0.10927636101E+02 0.11394233284E+02 0.12061168534E+02 0.12941018613E+02 0.14051390331E+02
 0.15417550572E+02 0.17074037030E+02 0.19063066553E+02 0.21427837015E+02 0.24200658145E+02
 0.27388698105E+02 0.30961439706E+02 0.34842305010E+02 0.38904553318E+02 0.42971900999E+02
 0.46827656224E+02 0.50238941070E+02 0.53000104492E+02 0.54989067515E+02 0.56212459427E+02
 0.56786633009E+02 0.56949257650E+02 0.49246416413E+02 0.49194273617E+02 0.48986695547E+02
 0.48495458774E+02 0.47576254101E+02 0.46132011425E+02 0.44149115773E+02 0.41697388106E+02
 0.38904553318E+02 0.35923278997E+02 0.32903933095E+02 0.29977028600E+02 0.27243314942E+02
 0.24768785417E+02 0.22584073824E+02 0.20689143952E+02 0.19063066553E+02 0.17676223448E+02
 0.16500977716E+02 0.15517866883E+02 0.14716721937E+02 0.14094153510E+02 0.13649802518E+02
 0.13383584231E+02 0.13294958863E+02 0.13383584231E+02 0.13649802518E+02 0.14094153510E+02
 0.14716721937E+02 0.15517866883E+02 0.16500977716E+02 0.17676223448E+02 0.19063066553E+02
 0.20689143952E+02 0.22584073824E+02 0.24768785417E+02 0.27243314942E+02 0.29977028600E+02
 0.32903933095E+02 0.35923278997E+02 0.38904553318E+02 0.41697388106E+02 0.44149115773E+02
 0.46132011425E+02 0.47576254101E+02 0.48495458774E+02 0.48986695547E+02 0.49194273617E+02
 0.41191862626E+02 0.41163799022E+02 0.41048855877E+02 0.40768609585E+02 0.40230984448E+02
 0.39367107605E+02 0.38154939933E+02 0.36623542632E+02 0.34842305010E+02 0.32903933095E+02
 0.30907970870E+02 0.28947273583E+02 0.27097371297E+02 0.25408981913E+02 0.23905114829E+02
 0.22584073824E+02 0.21427837015E+02 0.20413088117E+02 0.19521152757E+02 0.18743819562E+02
 0.18083967621E+02 0.17552066733E+02 0.17161011212E+02 0.16921795270E+02 0.16841297518E+02
 0.16921795270E+02 0.17161011212E+02 0.17552066733E+02 0.18083967621E+02 0.18743819562E+02
 0.19521152757E+02 0.20413088117E+02 0.21427837015E+02 0.22584073824E+02 0.23905114829E+02
 0.25408981913E+02 0.27097371297E+02 0.28947273583E+02 0.30907970870E+02 0.32903933095E+02
 0.34842305010E+02 0.36623542632E+02 0.38154939933E+02 0.39367107605E+02 0.40230984448E+02
 0.40768609585E+02 0.41048855877E+02 0.41163799022E+02 0.33621375669E+02 0.33627853085E+02
 0.33628919760E+02 0.33576472986E+02 0.33410339063E+02 0.33078733175E+02 0.32553706153E+02
 0.31837652538E+02 0.30961439706E+02 0.29977028600E+02 0.28947273583E+02 0.27934611956E+02
 0.26990177803E+02 0.26145481383E+02 0.25408981913E+02 0.24768785417E+02 0.24200658145E+02
 0.23678660145E+02 0.23184900886E+02 0.22715472123E+02 0.22281200952E+02 0.21903791580E+02
 0.21609360976E+02 0.21421743553E+02 0.21357279533E+02 0.21421743553E+02 0.21609360976E+02
 0.21903791580E+02 0.22281200952E+02 0.22715472123E+02 0.23184900886E+02 0.23678660145E+02
 0.24200658145E+02 0.24768785417E+02 0.25408981913E+02 0.26145481383E+02 0.26990177803E+02
 0.27934611956E+02 0.28947273583E+02 0.29977028600E+02 0.30961439706E+02 0.31837652538E+02
 0.32553706153E+02 0.33078733175E+02 0.33410339063E+02 0.33576472986E+02 0.33628919760E+02
 0.33627853085E+02 0.26950867171E+02 0.26990177803E+02 0.27097371297E+02 0.27243314942E+02
 0.27388698105E+02 0.27494770640E+02 0.27533520795E+02 0.27494770640E+02 0.27388698105E+02
 0.27243314942E+02 0.27097371297E+02 0.26990177803E+02 0.26950867171E+02 0.26990177803E+02
 0.27097371297E+02 0.27243314942E+02 0.27388698105E+02 0.27494770640E+02 0.27533520795E+02
 0.27494770640E+02 0.27388698105E+02 0.27243314942E+02 0.27097371297E+02 0.26990177803E+02
 0.26950867171E+02 0.26990177803E+02 0.27097371297E+02 0.27243314942E+02 0.27388698105E+02
 0.27494770640E+02 0.27533520795E+02 0.27494770640E+02 0.27388698105E+02 0.27243314942E+02
 0.27097371297E+02 0.26990177803E+02 0.26950867171E+02 0.26990177803E+02 0.27097371297E+02
 0.27243314942E+02 0.27388698105E+02 0.27494770640E+02 0.27533520795E+02 0.27494770640E+02
 0.27388698105E+02 0.27243314942E+02 0.27097371297E+02 0.26990177803E+02 0.21357279533E+02
 0.21421743553E+02 0.21609360976E+02 0.21903791580E+02 0.22281200952E+02 0.22715472123E+02
 0.23184900886E+02 0.23678660145E+02 0.24200658145E+02 0.24768785417E+02 0.25408981913E+02
 0.26145481383E+02 0.26990177803E+02 0.27934611956E+02 0.28947273583E+02 0.29977028600E+02
 0.30961439706E+02 0.31837652538E+02 0.32553706153E+02 0.33078733175E+02 0.33410339063E+02
 0.33576472986E+02 0.33628919760E+02 0.33627853085E+02 0.33621375669E+02 0.33627853085E+02
 0.33628919760E+02 0.33576472986E+02 0.33410339063E+02 0.33078733175E+02 0.32553706153E+02
 0.31837652538E+02 0.30961439706E+02 0.29977028600E+02 0.28947273583E+02 0.27934611956E+02
 0.26990177803E+02 0.26145481383E+02 0.25408981913E+02 0.24768785417E+02 0.24200658145E+02
 0.23678660145E+02 0.23184900886E+02 0.22715472123E+02 0.22281200952E+02 0.21903791580E+02
 0.21609360976E+02 0.21421743553E+02 0.16841297518E+02 0.16921795270E+02 0.17161011212E+02
 0.17552066733E+02 0.18083967621E+02 0.18743819562E+02 0.19521152757E+02 0.20413088117E+02
 0.21427837015E+02 0.22584073824E+02 0.23905114829E+02 0.25408981913E+02 0.27097371297E+02
 0.28947273583E+02 0.30907970870E+02 0.32903933095E+02 0.34842305010E+02 0.36623542632E+02
 0.38154939933E+02 0.39367107605E+02 0.40230984448E+02 0.40768609585E+02 0.41048855877E+02
 0.41163799022E+02 0.41191862626E+02 0.41163799022E+02 0.41048855877E+02 0.40768609585E+02
 0.40230984448E+02 0.39367107605E+02 0.38154939933E+02 0.36623542632E+02 0.34842305010E+02
 0.32903933095E+02 0.30907970870E+02 0.28947273583E+02 0.27097371297E+02 0.25408981913E+02
 0.23905114829E+02 0.22584073824E+02 0.21427837015E+02 0.20413088117E+02 0.19521152757E+02
 0.18743819562E+02 0.18083967621E+02 0.17552066733E+02 0.17161011212E+02 0.16921795270E+02
 0.13294958863E+02 0.13383584231E+02 0.13649802518E+02 0.14094153510E+02 0.14716721937E+02
 0.15517866883E+02 0.16500977716E+02 0.17676223448E+02 0.19063066553E+02 0.20689143952E+02
 0.22584073824E+02 0.24768785417E+02 0.27243314942E+02 0.29977028600E+02 0.32903933095E+02
 0.35923278997E+02 0.38904553318E+02 0.41697388106E+02 0.44149115773E+02 0.46132011425E+02
 0.47576254101E+02 0.48495458774E+02 0.48986695547E+02 0.49194273617E+02 0.49246416413E+02
 0.49194273617E+02 0.48986695547E+02 0.48495458774E+02 0.47576254101E+02 0.46132011425E+02
 0.44149115773E+02 0.41697388106E+02 0.38904553318E+02 0.35923278997E+02 0.32903933095E+02
 0.29977028600E+02 0.27243314942E+02 0.24768785417E+02 0.22584073824E+02 0.20689143952E+02
 0.19063066553E+02 0.17676223448E+02 0.16500977716E+02 0.15517866883E+02 0.14716721937E+02
 0.14094153510E+02 0.13649802518E+02 0.13383584231E+02 0.10560864960E+02 0.10651973554E+02
 0.10927636101E+02 0.11394233284E+02 0.12061168534E+02 0.12941018613E+02 0.14051390331E+02
 0.15417550572E+02 0.17074037030E+02 0.19063066553E+02 0.21427837015E+02 0.24200658145E+02
 0.27388698105E+02 0.30961439706E+02 0.34842305010E+02 0.38904553318E+02 0.42971900999E+02
 0.46827656224E+02 0.50238941070E+02 0.53000104492E+02 0.54989067515E+02 0.56212459427E+02
 0.56786633009E+02 0.56949257650E+02 0.56965474667E+02 0.56949257650E+02 0.56786633009E+02
 0.56212459427E+02 0.54989067515E+02 0.53000104492E+02 0.50238941070E+02 0.46827656224E+02
 0.42971900999E+02 0.38904553318E+02 0.34842305010E+02 0.30961439706E+02 0.27388698105E+02
 0.24200658145E+02 0.21427837015E+02 0.19063066553E+02 0.17074037030E+02 0.15417550572E+02
 0.14051390331E+02 0.12941018613E+02 0.12061168534E+02 0.11394233284E+02 0.10927636101E+02
 0.10651973554E+02 0.84762705916E+01 0.85664845115E+01 0.88409389028E+01 0.93104309012E+01
 0.99917292581E+01 0.10907685882E+02 0.12088764632E+02 0.13575075700E+02 0.15417550572E+02
 0.17676223448E+02 0.20413088117E+02 0.23678660145E+02 0.27494770640E+02 0.31837652538E+02
 0.36623542632E+02 0.41697388106E+02 0.46827656224E+02 0.51715336592E+02 0.56027904997E+02
 0.59463747319E+02 0.61745661594E+02 0.62722089288E+02 0.62689495269E+02 0.62262825814E+02
 0.62038889637E+02 0.62262825814E+02 0.62689495269E+02 0.62722089288E+02 0.61745661594E+02
 0.59463747319E+02 0.56027904997E+02 0.51715336592E+02 0.46827656224E+02 0.41697388106E+02
 0.36623542632E+02 0.31837652538E+02 0.27494770640E+02 0.23678660145E+02 0.20413088117E+02
 0.17676223448E+02 0.15417550572E+02 0.13575075700E+02 0.12088764632E+02 0.10907685882E+02
 0.99917292581E+01 0.93104309012E+01 0.88409389028E+01 0.85664845115E+01 0.68990565099E+01
 0.69867735309E+01 0.72547558488E+01 0.77168975726E+01 0.83953192034E+01 0.93207445628E+01
 0.10534149711E+02 0.12088764632E+02 0.14051390331E+02 0.16500977716E+02 0.19521152757E+02
 0.23184900886E+02 0.27533520795E+02 0.32553706153E+02 0.38154939933E+02 0.44149115773E+02
 0.50238941070E+02 0.56027904997E+02 0.61061700332E+02 0.64688018477E+02 0.66244160965E+02
 0.65746634762E+02 0.63975626417E+02 0.62159526364E+02 0.61406230762E+02 0.62159526364E+02
 0.63975626417E+02 0.65746634762E+02 0.66244160965E+02 0.64688018477E+02 0.61061700332E+02
 0.56027904997E+02 0.50238941070E+02 0.44149115773E+02 0.38154939933E+02 0.32553706153E+02
 0.27533520795E+02 0.23184900886E+02 0.19521152757E+02 0.16500977716E+02 0.14051390331E+02
 0.12088764632E+02 0.10534149711E+02 0.93207445628E+01 0.83953192034E+01 0.77168975726E+01
 0.72547558488E+01 0.69867735309E+01 0.57169102658E+01 0.58016920827E+01 0.60614996793E+01
 0.65121807183E+01 0.71793704499E+01 0.80992764726E+01 0.93207445628E+01 0.10907685882E+02
 0.12941018613E+02 0.15517866883E+02 0.18743819562E+02 0.22715472123E+02 0.27494770640E+02
 0.33078733175E+02 0.39367107605E+02 0.46132011425E+02 0.53000104492E+02 0.59463747319E+02
 0.64688018477E+02 0.67375521411E+02 0.66813378005E+02 0.63391151686E+02 0.58597975473E+02
 0.54505090241E+02 0.52905016077E+02 0.54505090241E+02 0.58597975473E+02 0.63391151686E+02
 0.66813378005E+02 0.67375521411E+02 0.64688018477E+02 0.59463747319E+02 0.53000104492E+02
 0.46132011425E+02 0.39367107605E+02 0.33078733175E+02 0.27494770640E+02 0.22715472123E+02
 0.18743819562E+02 0.15517866883E+02 0.12941018613E+02 0.10907685882E+02 0.93207445628E+01
 0.80992764726E+01 0.71793704499E+01 0.65121807183E+01 0.60614996793E+01 0.58016920827E+01
 0.48458228486E+01 0.49278704067E+01 0.51798155089E+01 0.56185886166E+01 0.62718835450E+01
 0.71793704499E+01 0.83953192034E+01 0.99917292581E+01 0.12061168534E+02 0.14716721937E+02
 0.18083967621E+02 0.22281200952E+02 0.27388698105E+02 0.33410339063E+02 0.40230984448E+02
 0.47576254101E+02 0.54989067515E+02 0.61745661594E+02 0.66244160965E+02 0.66813378005E+02
 0.62822441785E+02 0.55180474787E+02 0.46258967712E+02 0.39141241760E+02 0.36429590474E+02
 0.39141241760E+02 0.46258967712E+02 0.55180474787E+02 0.62822441785E+02 0.66813378005E+02
 0.66244160965E+02 0.61745661594E+02 0.54989067515E+02 0.47576254101E+02 0.40230984448E+02
 0.33410339063E+02 0.27388698105E+02 0.22281200952E+02 0.18083967621E+02 0.14716721937E+02
 0.12061168534E+02 0.99917292581E+01 0.83953192034E+01 0.71793704499E+01 0.62718835450E+01
 0.56185886166E+01 0.51798155089E+01 0.49278704067E+01 0.42248447423E+01 0.43046483285E+01
 0.45500204702E+01 0.49784145466E+01 0.56185886166E+01 0.65121807183E+01 0.77168975726E+01
 0.93104309012E+01 0.11394233284E+02 0.14094153510E+02 0.17552066733E+02 0.21903791580E+02
 0.27243314942E+02 0.33576472986E+02 0.40768609585E+02 0.48495458774E+02 0.56212459427E+02
 0.62722089288E+02 0.65746634762E+02 0.63391151686E+02 0.55180474787E+02 0.42615208782E+02
 0.29012578647E+02 0.18517406103E+02 0.14573073445E+02 0.18517406103E+02 0.29012578647E+02
 0.42615208782E+02 0.55180474787E+02 0.63391151686E+02 0.65746634762E+02 0.62722089288E+02
 0.56212459427E+02 0.48495458774E+02 0.40768609585E+02 0.33576472986E+02 0.27243314942E+02
 0.21903791580E+02 0.17552066733E+02 0.14094153510E+02 0.11394233284E+02 0.93104309012E+01
 0.77168975726E+01 0.65121807183E+01 0.56185886166E+01 0.49784145466E+01 0.45500204702E+01
 0.43046483285E+01 0.38108176636E+01 0.38889778834E+01 0.41294868342E+01 0.45500204702E+01
 0.51798155089E+01 0.60614996793E+01 0.72547558488E+01 0.88409389028E+01 0.10927636101E+02
 0.13649802518E+02 0.17161011212E+02 0.21609360976E+02 0.27097371297E+02 0.33628919760E+02
 0.41048855877E+02 0.48986695547E+02 0.56786633009E+02 0.62689495269E+02 0.63975626417E+02
 0.58597975473E+02 0.46258967712E+02 0.29012578647E+02 0.11030693648E+02 -.25955978534E+01
 -.76780167530E+01 -.25955978534E+01 0.11030693648E+02 0.29012578647E+02 0.46258967712E+02
 0.58597975473E+02 0.63975626417E+02 0.62689495269E+02 0.56786633009E+02 0.48986695547E+02
 0.41048855877E+02 0.33628919760E+02 0.27097371297E+02 0.21609360976E+02 0.17161011212E+02
 0.13649802518E+02 0.10927636101E+02 0.88409389028E+01 0.72547558488E+01 0.60614996793E+01
 0.51798155089E+01 0.45500204702E+01 0.41294868342E+01 0.38889778834E+01 0.35742823646E+01
 0.36514424925E+01 0.38889778834E+01 0.43046483285E+01 0.49278704067E+01 0.58016920827E+01
 0.69867735309E+01 0.85664845115E+01 0.10651973554E+02 0.13383584231E+02 0.16921795270E+02
 0.21421743553E+02 0.26990177803E+02 0.33627853085E+02 0.41163799022E+02 0.49194273617E+02
 0.56949257650E+02 0.62262825814E+02 0.62159526364E+02 0.54505090241E+02 0.39141241760E+02
 0.18517406103E+02 -.25955978534E+01 -.18449010485E+02 -.24339002711E+02 -.18449010485E+02
 -.25955978534E+01 0.18517406103E+02 0.39141241760E+02 0.54505090241E+02 0.62159526364E+02
 0.62262825814E+02 0.56949257650E+02 0.49194273617E+02 0.41163799022E+02 0.33627853085E+02
 0.26990177803E+02 0.21421743553E+02 0.16921795270E+02 0.13383584231E+02 0.10651973554E+02
 0.85664845115E+01 0.69867735309E+01 0.58016920827E+01 0.49278704067E+01 0.43046483285E+01
 0.38889778834E+01 0.36514424925E+01 0.34974580458E+01 0.35742823646E+01 0.38108176636E+01
 0.42248447423E+01 0.48458228486E+01 0.57169102658E+01 0.68990565099E+01 0.84762705916E+01
 0.10560864960E+02 0.13294958863E+02 0.16841297518E+02 0.21357279533E+02 0.26950867171E+02
 0.33621375669E+02 0.41191862626E+02 0.49246416413E+02 0.56965474667E+02 0.62038889637E+02
 0.61406230762E+02 0.52905016077E+02 0.36429590474E+02 0.14573073445E+02 -.76780167530E+01
 -.24339002711E+02 -.30521504167E+02 -.24339002711E+02 -.76780167530E+01 0.14573073445E+02
 0.36429590474E+02 0.52905016077E+02 0.61406230762E+02 0.62038889637E+02 0.56965474667E+02
 0.49246416413E+02 0.41191862626E+02 0.33621375669E+02 0.26950867171E+02 0.21357279533E+02
 0.16841297518E+02 0.13294958863E+02 0.10560864960E+02 0.84762705916E+01 0.68990565099E+01
 0.57169102658E+01 0.48458228486E+01 0.42248447423E+01 0.38108176636E+01 0.35742823646E+01
 0.35742823646E+01 0.36514424925E+01 0.38889778834E+01 0.43046483285E+01 0.49278704067E+01
 0.58016920827E+01 0.69867735309E+01 0.85664845115E+01 0.10651973554E+02 0.13383584231E+02
 0.16921795270E+02 0.21421743553E+02 0.26990177803E+02 0.33627853085E+02 0.41163799022E+02
 0.49194273617E+02 0.56949257650E+02 0.62262825814E+02 0.62159526364E+02 0.54505090241E+02
 0.39141241760E+02 0.18517406103E+02 -.25955978534E+01 -.18449010485E+02 -.24339002711E+02
 -.18449010485E+02 -.25955978534E+01 0.18517406103E+02 0.39141241760E+02 0.54505090241E+02
 0.62159526364E+02 0.62262825814E+02 0.56949257650E+02 0.49194273617E+02 0.41163799022E+02
 0.33627853085E+02 0.26990177803E+02 0.21421743553E+02 0.16921795270E+02 0.13383584231E+02
 0.10651973554E+02 0.85664845115E+01 0.69867735309E+01 0.58016920827E+01 0.49278704067E+01
 0.43046483285E+01 0.38889778834E+01 0.36514424925E+01 0.38108176636E+01 0.38889778834E+01
 0.41294868342E+01 0.45500204702E+01 0.51798155089E+01 0.60614996793E+01 0.72547558488E+01
 0.88409389028E+01 0.10927636101E+02 0.13649802518E+02 0.17161011212E+02 0.21609360976E+02
 0.27097371297E+02 0.33628919760E+02 0.41048855877E+02 0.48986695547E+02 0.56786633009E+02
 0.62689495269E+02 0.63975626417E+02 0.58597975473E+02 0.46258967712E+02 0.29012578647E+02
 0.11030693648E+02 -.25955978534E+01 -.76780167530E+01 -.25955978534E+01 0.11030693648E+02
 0.29012578647E+02 0.46258967712E+02 0.58597975473E+02 0.63975626417E+02 0.62689495269E+02
 0.56786633009E+02 0.48986695547E+02 0.41048855877E+02 0.33628919760E+02 0.27097371297E+02
 0.21609360976E+02 0.17161011212E+02 0.13649802518E+02 0.10927636101E+02 0.88409389028E+01
 0.72547558488E+01 0.60614996793E+01 0.51798155089E+01 0.45500204702E+01 0.41294868342E+01
 0.38889778834E+01 0.42248447423E+01 0.43046483285E+01 0.45500204702E+01 0.49784145466E+01
 0.56185886166E+01 0.65121807183E+01 0.77168975726E+01 0.93104309012E+01 0.11394233284E+02
 0.14094153510E+02 0.17552066733E+02 0.21903791580E+02 0.27243314942E+02 0.33576472986E+02
 0.40768609585E+02 0.48495458774E+02 0.56212459427E+02 0.62722089288E+02 0.65746634762E+02
 0.63391151686E+02 0.55180474787E+02 0.42615208782E+02 0.29012578647E+02 0.18517406103E+02
 0.14573073445E+02 0.18517406103E+02 0.29012578647E+02 0.42615208782E+02 0.55180474787E+02
 0.63391151686E+02 0.65746634762E+02 0.62722089288E+02 0.56212459427E+02 0.48495458774E+02
 0.40768609585E+02 0.33576472986E+02 0.27243314942E+02 0.21903791580E+02 0.17552066733E+02
 0.14094153510E+02 0.11394233284E+02 0.93104309012E+01 0.77168975726E+01 0.65121807183E+01
 0.56185886166E+01 0.49784145466E+01 0.45500204702E+01 0.43046483285E+01 0.48458228486E+01
 0.49278704067E+01 0.51798155089E+01 0.56185886166E+01 0.62718835450E+01 0.71793704499E+01
 0.83953192034E+01 0.99917292581E+01 0.12061168534E+02 0.14716721937E+02 0.18083967621E+02
 0.22281200952E+02 0.27388698105E+02 0.33410339063E+02 0.40230984448E+02 0.47576254101E+02
 0.54989067515E+02 0.61745661594E+02 0.66244160965E+02 0.66813378005E+02 0.62822441785E+02
 0.55180474787E+02 0.46258967712E+02 0.39141241760E+02 0.36429590474E+02 0.39141241760E+02
 0.46258967712E+02 0.55180474787E+02 0.62822441785E+02 0.66813378005E+02 0.66244160965E+02
 0.61745661594E+02 0.54989067515E+02 0.47576254101E+02 0.40230984448E+02 0.33410339063E+02
 0.27388698105E+02 0.22281200952E+02 0.18083967621E+02 0.14716721937E+02 0.12061168534E+02
 0.99917292581E+01 0.83953192034E+01 0.71793704499E+01 0.62718835450E+01 0.56185886166E+01
 0.51798155089E+01 0.49278704067E+01 0.57169102658E+01 0.58016920827E+01 0.60614996793E+01
 0.65121807183E+01 0.71793704499E+01 0.80992764726E+01 0.93207445628E+01 0.10907685882E+02
 0.12941018613E+02 0.15517866883E+02 0.18743819562E+02 0.22715472123E+02 0.27494770640E+02
 0.33078733175E+02 0.39367107605E+02 0.46132011425E+02 0.53000104492E+02 0.59463747319E+02
 0.64688018477E+02 0.67375521411E+02 0.66813378005E+02 0.63391151686E+02 0.58597975473E+02
 0.54505090241E+02 0.52905016077E+02 0.54505090241E+02 0.58597975473E+02 0.63391151686E+02
 0.66813378005E+02 0.67375521411E+02 0.64688018477E+02 0.59463747319E+02 0.53000104492E+02
 0.46132011425E+02 0.39367107605E+02 0.33078733175E+02 0.27494770640E+02 0.22715472123E+02
 0.18743819562E+02 0.15517866883E+02 0.12941018613E+02 0.10907685882E+02 0.93207445628E+01
 0.80992764726E+01 0.71793704499E+01 0.65121807183E+01 0.60614996793E+01 0.58016920827E+01
 0.68990565099E+01 0.69867735309E+01 0.72547558488E+01 0.77168975726E+01 0.83953192034E+01
 0.93207445628E+01 0.10534149711E+02 0.12088764632E+02 0.14051390331E+02 0.16500977716E+02
 0.19521152757E+02 0.23184900886E+02 0.27533520795E+02 0.32553706153E+02 0.38154939933E+02
 0.44149115773E+02 0.50238941070E+02 0.56027904997E+02 0.61061700332E+02 0.64688018477E+02
 0.66244160965E+02 0.65746634762E+02 0.63975626417E+02 0.62159526364E+02 0.61406230762E+02
 0.62159526364E+02 0.63975626417E+02 0.65746634762E+02 0.66244160965E+02 0.64688018477E+02
 0.61061700332E+02 0.56027904997E+02 0.50238941070E+02 0.44149115773E+02 0.38154939933E+02
 0.32553706153E+02 0.27533520795E+02 0.23184900886E+02 0.19521152757E+02 0.16500977716E+02
 0.14051390331E+02 0.12088764632E+02 0.10534149711E+02 0.93207445628E+01 0.83953192034E+01
 0.77168975726E+01 0.72547558488E+01 0.69867735309E+01 0.84762705916E+01 0.85664845115E+01
 0.88409389028E+01 0.93104309012E+01 0.99917292581E+01 0.10907685882E+02 0.12088764632E+02
 0.13575075700E+02 0.15417550572E+02 0.17676223448E+02 0.20413088117E+02 0.23678660145E+02
 0.27494770640E+02 0.31837652538E+02 0.36623542632E+02 0.41697388106E+02 0.46827656224E+02
 0.51715336592E+02 0.56027904997E+02 0.59463747319E+02 0.61745661594E+02 0.62722089288E+02
 0.62689495269E+02 0.62262825814E+02 0.62038889637E+02 0.62262825814E+02 0.62689495269E+02
 0.62722089288E+02 0.61745661594E+02 0.59463747319E+02 0.56027904997E+02 0.51715336592E+02
 0.46827656224E+02 0.41697388106E+02 0.36623542632E+02 0.31837652538E+02 0.27494770640E+02
 0.23678660145E+02 0.20413088117E+02 0.17676223448E+02 0.15417550572E+02 0.13575075700E+02
 0.12088764632E+02 0.10907685882E+02 0.99917292581E+01 0.93104309012E+01 0.88409389028E+01
 0.85664845115E+01 0.10560864960E+02 0.10651973554E+02 0.10927636101E+02 0.11394233284E+02
 0.12061168534E+02 0.12941018613E+02 0.14051390331E+02 0.15417550572E+02 0.17074037030E+02
 0.19063066553E+02 0.21427837015E+02 0.24200658145E+02 0.27388698105E+02 0.30961439706E+02
 0.34842305010E+02 0.38904553318E+02 0.42971900999E+02 0.46827656224E+02 0.50238941070E+02
 0.53000104492E+02 0.54989067515E+02 0.56212459427E+02 0.56786633009E+02 0.56949257650E+02
 0.56965474667E+02 0.56949257650E+02 0.56786633009E+02 0.56212459427E+02 0.54989067515E+02
 0.53000104492E+02 0.50238941070E+02 0.46827656224E+02 0.42971900999E+02 0.38904553318E+02
 0.34842305010E+02 0.30961439706E+02 0.27388698105E+02 0.24200658145E+02 0.21427837015E+02
 0.19063066553E+02 0.17074037030E+02 0.15417550572E+02 0.14051390331E+02 0.12941018613E+02
 0.12061168534E+02 0.11394233284E+02 0.10927636101E+02 0.10651973554E+02 0.13294958863E+02
 0.13383584231E+02 0.13649802518E+02 0.14094153510E+02 0.14716721937E+02 0.15517866883E+02
 0.16500977716E+02 0.17676223448E+02 0.19063066553E+02 0.20689143952E+02 0.22584073824E+02
 0.24768785417E+02 0.27243314942E+02 0.29977028600E+02 0.32903933095E+02 0.35923278997E+02
 0.38904553318E+02 0.41697388106E+02 0.44149115773E+02 0.46132011425E+02 0.47576254101E+02
 0.48495458774E+02 0.48986695547E+02 0.49194273617E+02 0.49246416413E+02 0.49194273617E+02
 0.48986695547E+02 0.48495458774E+02 0.47576254101E+02 0.46132011425E+02 0.44149115773E+02
 0.41697388106E+02 0.38904553318E+02 0.35923278997E+02 0.32903933095E+02 0.29977028600E+02