unknown system                          
   1.00000000000000     
     5.431010    0.000000    0.000000
     0.000000    5.431010    0.000000
     0.000000    0.000000    5.431010
   Si
     8
Direct
  0.000000  0.000000  0.000000
  0.000000  0.500000  0.500000
  0.500000  0.000000  0.500000
  0.500000  0.500000  0.000000
  0.250000  0.250000  0.250000
  0.250000  0.750000  0.750000
  0.750000  0.250000  0.750000
  0.750000  0.750000  0.250000
 
   24   24   24
 0.45402E-01 0.99878E-01 0.31865     0.55934     0.65576     0.61984     0.47647     0.28982     0.14181     0.60989E-01
 0.27616E-01 0.15958E-01 0.13156E-01 0.15958E-01 0.27616E-01 0.60989E-01 0.14181     0.28982     0.47647     0.61984    
 0.65576     0.55934     0.31865     0.99878E-01 0.99878E-01 0.17922     0.42047     0.62734     0.69419     0.64405    
 0.49465     0.30407     0.15192     0.67868E-01 0.32204E-01 0.19200E-01 0.15958E-01 0.19200E-01 0.32204E-01 0.67868E-01
 0.15192     0.30407     0.49465     0.64405     0.69419     0.62734     0.42047     0.17922     0.31865     0.42047    
 0.62404     0.74496     0.76148     0.68846     0.53186     0.33753     0.17985     0.90140E-01 0.49043E-01 0.32204E-01
 0.27616E-01 0.32204E-01 0.49043E-01 0.90140E-01 0.17985     0.33753     0.53186     0.68846     0.76148     0.74496    
 0.62404     0.42047     0.55934     0.62734     0.74496     0.80431     0.79060     0.70467     0.55077     0.36835    
 0.22219     0.13542     0.90140E-01 0.67868E-01 0.60989E-01 0.67868E-01 0.90140E-01 0.13542     0.22219     0.36835    
 0.55077     0.70467     0.79060     0.80431     0.74496     0.62734     0.65576     0.69419     0.76148     0.79060    
 0.76043     0.66965     0.53186     0.39040     0.28667     0.22219     0.17985     0.15192     0.14181     0.15192    
 0.17985     0.22219     0.28667     0.39040     0.53186     0.66965     0.76043     0.79060     0.76148     0.69419    
 0.61984     0.64405     0.68846     0.70467     0.66965     0.58890     0.49465     0.42547     0.39040     0.36835    
 0.33753     0.30407     0.28982     0.30407     0.33753     0.36835     0.39040     0.42547     0.49465     0.58890    
 0.66965     0.70467     0.68846     0.64405     0.47647     0.49465     0.53186     0.55077     0.53186     0.49465    
 0.47647     0.49465     0.53186     0.55077     0.53186     0.49465     0.47647     0.49465     0.53186     0.55077    
 0.53186     0.49465     0.47647     0.49465     0.53186     0.55077     0.53186     0.49465     0.28982     0.30407    
 0.33753     0.36835     0.39040     0.42547     0.49465     0.58890     0.66965     0.70467     0.68846     0.64405    
 0.61984     0.64405     0.68846     0.70467     0.66965     0.58890     0.49465     0.42547     0.39040     0.36835    
 0.33753     0.30407     0.14181     0.15192     0.17985     0.22219     0.28667     0.39040     0.53186     0.66965    
 0.76043     0.79060     0.76148     0.69419     0.65576     0.69419     0.76148     0.79060     0.76043     0.66965    
 0.53186     0.39040     0.28667     0.22219     0.17985     0.15192     0.60989E-01 0.67868E-01 0.90140E-01 0.13542    
 0.22219     0.36835     0.55077     0.70467     0.79060     0.80431     0.74496     0.62734     0.55934     0.62734    
 0.74496     0.80431     0.79060     0.70467     0.55077     0.36835     0.22219     0.13542     0.90140E-01 0.67868E-01
 0.27616E-01 0.32204E-01 0.49043E-01 0.90140E-01 0.17985     0.33753     0.53186     0.68846     0.76148     0.74496    
 0.62404     0.42047     0.31865     0.42047     0.62404     0.74496     0.76148     0.68846     0.53186     0.33753    
 0.17985     0.90140E-01 0.49043E-01 0.32204E-01 0.15958E-01 0.19200E-01 0.32204E-01 0.67868E-01 0.15192     0.30407    
 0.49465     0.64405     0.69419     0.62734     0.42047     0.17922     0.99878E-01 0.17922     0.42047     0.62734    
 0.69419     0.64405     0.49465     0.30407     0.15192     0.67868E-01 0.32204E-01 0.19200E-01 0.13156E-01 0.15958E-01
 0.27616E-01 0.60989E-01 0.14181     0.28982     0.47647     0.61984     0.65576     0.55934     0.31865     0.99878E-01
 0.45402E-01 0.99878E-01 0.31865     0.55934     0.65576     0.61984     0.47647     0.28982     0.14181     0.60989E-01
 0.27616E-01 0.15958E-01 0.15958E-01 0.19200E-01 0.32204E-01 0.67868E-01 0.15192     0.30407     0.49465     0.64405    
 0.69419     0.62734     0.42047     0.17922     0.99878E-01 0.17922     0.42047     0.62734     0.69419     0.64405    
 0.49465     0.30407     0.15192     0.67868E-01 0.32204E-01 0.19200E-01 0.27616E-01 0.32204E-01 0.49043E-01 0.90140E-01
 0.17985     0.33753     0.53186     0.68846     0.76148     0.74496     0.62404     0.42047     0.31865     0.42047    
 0.62404     0.74496     0.76148     0.68846     0.53186     0.33753     0.17985     0.90140E-01 0.49043E-01 0.32204E-01
 0.60989E-01 0.67868E-01 0.90140E-01 0.13542     0.22219     0.36835     0.55077     0.70467     0.79060     0.80431    
 0.74496     0.62734     0.55934     0.62734     0.74496     0.80431     0.79060     0.70467     0.55077     0.36835    
 0.22219     0.13542     0.90140E-01 0.67868E-01 0.14181     0.15192     0.17985     0.22219     0.28667     0.39040    
 0.53186     0.66965     0.76043     0.79060     0.76148     0.69419     0.65576     0.69419     0.76148     0.79060    
 0.76043     0.66965     0.53186     0.39040     0.28667     0.22219     0.17985     0.15192     0.28982     0.30407    
 0.33753     0.36835     0.39040     0.42547     0.49465     0.58890     0.66965     0.70467     0.68846     0.64405    
 0.61984     0.64405     0.68846     0.70467     0.66965     0.58890     0.49465     0.42547     0.39040     0.36835    
 0.33753     0.30407     0.47647     0.49465     0.53186     0.55077     0.53186     0.49465     0.47647     0.49465    
 0.53186     0.55077     0.53186     0.49465     0.47647     0.49465     0.53186     0.55077     0.53186     0.49465    
 0.47647     0.49465     0.53186     0.55077     0.53186     0.49465     0.61984     0.64405     0.68846     0.70467    
 0.66965     0.58890     0.49465     0.42547     0.39040     0.36835     0.33753     0.30407     0.28982     0.30407    
 0.33753     0.36835     0.39040     0.42547     0.49465     0.58890     0.66965     0.70467     0.68846     0.64405    
 0.65576     0.69419     0.76148     0.79060     0.76043     0.66965     0.53186     0.39040     0.28667     0.22219    
 0.17985     0.15192     0.14181     0.15192     0.17985     0.22219     0.28667     0.39040     0.53186     0.66965    
 0.76043     0.79060     0.76148     0.69419     0.55934     0.62734     0.74496     0.80431     0.79060     0.70467    
 0.55077     0.36835     0.22219     0.13542     0.90140E-01 0.67868E-01 0.60989E-01 0.67868E-01 0.90140E-01 0.13542    
 0.22219     0.36835     0.55077     0.70467     0.79060     0.80431     0.74496     0.62734     0.31865     0.42047    
 0.62404     0.74496     0.76148     0.68846     0.53186     0.33753     0.17985     0.90140E-01 0.49043E-01 0.32204E-01
 0.27616E-01 0.32204E-01 0.49043E-01 0.90140E-01 0.17985     0.33753     0.53186     0.68846     0.76148     0.74496    
 0.62404     0.42047     0.99878E-01 0.17922     0.42047     0.62734     0.69419     0.64405     0.49465     0.30407    
 0.15192     0.67868E-01 0.32204E-01 0.19200E-01 0.15958E-01 0.19200E-01 0.32204E-01 0.67868E-01 0.15192     0.30407    
 0.49465     0.64405     0.69419     0.62734     0.42047     0.17922     0.99878E-01 0.17922     0.42047     0.62734    
 0.69419     0.64405     0.49464     0.30407     0.15192     0.67869E-01 0.32204E-01 0.19201E-01 0.15958E-01 0.19200E-01
 0.32205E-01 0.67867E-01 0.15193     0.30407     0.49465     0.64404     0.69419     0.62734     0.42047     0.17922    
 0.17922     0.39501     0.67097     0.78950     0.80240     0.73689     0.58890     0.38845     0.21018     0.10169    
 0.50424E-01 0.28273E-01 0.19200E-01 0.18012E-01 0.25717E-01 0.51549E-01 0.11760     0.24733     0.42547     0.57607    
 0.62297     0.53849     0.33879     0.17655     0.42047     0.67097     0.83799     0.88493     0.87215     0.80543    
 0.66965     0.47228     0.28069     0.15370     0.85644E-01 0.50426E-01 0.32205E-01 0.25717E-01 0.30217E-01 0.51560E-01
 0.10767     0.22244     0.39040     0.54808     0.61851     0.57374     0.43899     0.33879     0.62734     0.78950    
 0.88493     0.90926     0.89062     0.82822     0.70467     0.52526     0.35316     0.23179     0.15370     0.10168    
 0.67867E-01 0.51549E-01 0.51560E-01 0.69789E-01 0.11815     0.21712     0.36835     0.52526     0.62265     0.63109    
 0.57374     0.53849     0.69419     0.80240     0.87215     0.89062     0.86969     0.80543     0.68846     0.54807    
 0.43512     0.35315     0.28070     0.21018     0.15193     0.11760     0.10767     0.11815     0.15187     0.22244    
 0.33753     0.47228     0.57777     0.62265     0.61851     0.62297     0.64405     0.73689     0.80543     0.82822    
 0.80543     0.73689     0.64405     0.57607     0.54808     0.52526     0.47228     0.38844     0.30407     0.24733    
 0.22244     0.21712     0.22244     0.24734     0.30407     0.38845     0.47227     0.52526     0.54808     0.57608    
 0.49464     0.58890     0.66965     0.70467     0.68846     0.64405     0.61984     0.64404     0.68846     0.70467    
 0.66965     0.58890     0.49465     0.42547     0.39040     0.36835     0.33753     0.30407     0.28982     0.30408    
 0.33754     0.36836     0.39039     0.42547     0.30407     0.38845     0.47228     0.52526     0.54807     0.57607    
 0.64404     0.73689     0.80543     0.82823     0.80543     0.73689     0.64404     0.57607     0.54808     0.52526    
 0.47228     0.38845     0.30408     0.24733     0.22244     0.21711     0.22244     0.24734     0.15192     0.21018    
 0.28069     0.35316     0.43512     0.54808     0.68846     0.80543     0.86968     0.89062     0.87215     0.80240    
 0.69419     0.62297     0.61851     0.62265     0.57777     0.47227     0.33754     0.22244     0.15188     0.11815    
 0.10767     0.11759     0.67869E-01 0.10169     0.15370     0.23179     0.35315     0.52526     0.70467     0.82823    
 0.89062     0.90926     0.88493     0.78950     0.62734     0.53849     0.57374     0.63109     0.62265     0.52526    
 0.36836     0.21711     0.11815     0.69787E-01 0.51561E-01 0.51550E-01 0.32204E-01 0.50424E-01 0.85644E-01 0.15370    
 0.28070     0.47228     0.66965     0.80543     0.87215     0.88493     0.83799     0.67097     0.42047     0.33879    
 0.43899     0.57374     0.61851     0.54808     0.39039     0.22244     0.10767     0.51561E-01 0.30217E-01 0.25716E-01
 0.19201E-01 0.28273E-01 0.50426E-01 0.10168     0.21018     0.38844     0.58890     0.73689     0.80240     0.78950    
 0.67097     0.39502     0.17922     0.17655     0.33879     0.53849     0.62297     0.57608     0.42547     0.24734    
 0.11759     0.51550E-01 0.25716E-01 0.18012E-01 0.15958E-01 0.19200E-01 0.32205E-01 0.67867E-01 0.15193     0.30407    
 0.49465     0.64404     0.69419     0.62734     0.42047     0.17922     0.99878E-01 0.17922     0.42047     0.62734    
 0.69419     0.64405     0.49464     0.30407     0.15192     0.67869E-01 0.32204E-01 0.19201E-01 0.19200E-01 0.18012E-01
 0.25717E-01 0.51549E-01 0.11760     0.24733     0.42547     0.57607     0.62297     0.53849     0.33879     0.17655    
 0.17922     0.39501     0.67097     0.78950     0.80240     0.73689     0.58890     0.38845     0.21018     0.10169    
 0.50424E-01 0.28273E-01 0.32205E-01 0.25717E-01 0.30217E-01 0.51560E-01 0.10767     0.22244     0.39040     0.54808    
 0.61851     0.57374     0.43899     0.33879     0.42047     0.67097     0.83799     0.88493     0.87215     0.80543    
 0.66965     0.47228     0.28069     0.15370     0.85644E-01 0.50426E-01 0.67867E-01 0.51549E-01 0.51560E-01 0.69789E-01
 0.11815     0.21712     0.36835     0.52526     0.62265     0.63109     0.57374     0.53849     0.62734     0.78950    
 0.88493     0.90926     0.89062     0.82822     0.70467     0.52526     0.35316     0.23179     0.15370     0.10168    
 0.15193     0.11760     0.10767     0.11815     0.15187     0.22244     0.33753     0.47228     0.57777     0.62265    
 0.61851     0.62297     0.69419     0.80240     0.87215     0.89062     0.86969     0.80543     0.68846     0.54807    
 0.43512     0.35315     0.28070     0.21018     0.30407     0.24733     0.22244     0.21712     0.22244     0.24734    
 0.30407     0.38845     0.47227     0.52526     0.54808     0.57608     0.64405     0.73689     0.80543     0.82822    
 0.80543     0.73689     0.64405     0.57607     0.54808     0.52526     0.47228     0.38844     0.49465     0.42547    
 0.39040     0.36835     0.33753     0.30407     0.28982     0.30408     0.33754     0.36836     0.39039     0.42547    
 0.49464     0.58890     0.66965     0.70467     0.68846     0.64405     0.61984     0.64404     0.68846     0.70467    
 0.66965     0.58890     0.64404     0.57607     0.54808     0.52526     0.47228     0.38845     0.30408     0.24733    
 0.22244     0.21711     0.22244     0.24734     0.30407     0.38845     0.47228     0.52526     0.54807     0.57607    
 0.64404     0.73689     0.80543     0.82823     0.80543     0.73689     0.69419     0.62297     0.61851     0.62265    
 0.57777     0.47227     0.33754     0.22244     0.15188     0.11815     0.10767     0.11759     0.15192     0.21018    
 0.28069     0.35316     0.43512     0.54808     0.68846     0.80543     0.86968     0.89062     0.87215     0.80240    
 0.62734     0.53849     0.57374     0.63109     0.62265     0.52526     0.36836     0.21711     0.11815     0.69787E-01
 0.51561E-01 0.51550E-01 0.67869E-01 0.10169     0.15370     0.23179     0.35315     0.52526     0.70467     0.82823    
 0.89062     0.90926     0.88493     0.78950     0.42047     0.33879     0.43899     0.57374     0.61851     0.54808    
 0.39039     0.22244     0.10767     0.51561E-01 0.30217E-01 0.25716E-01 0.32204E-01 0.50424E-01 0.85644E-01 0.15370    
 0.28070     0.47228     0.66965     0.80543     0.87215     0.88493     0.83799     0.67097     0.17922     0.17655    
 0.33879     0.53849     0.62297     0.57608     0.42547     0.24734     0.11759     0.51550E-01 0.25716E-01 0.18012E-01
 0.19201E-01 0.28273E-01 0.50426E-01 0.10168     0.21018     0.38844     0.58890     0.73689     0.80240     0.78950    
 0.67097     0.39502     0.31865     0.42047     0.62404     0.74496     0.76148     0.68846     0.53185     0.33753    
 0.17984     0.90143E-01 0.49042E-01 0.32206E-01 0.27616E-01 0.32203E-01 0.49045E-01 0.90137E-01 0.17986     0.33753    
 0.53187     0.68846     0.76149     0.74496     0.62404     0.42047     0.42047     0.67097     0.83799     0.88493    
 0.87215     0.80543     0.66965     0.47229     0.28069     0.15370     0.85640E-01 0.50425E-01 0.32203E-01 0.25716E-01
 0.30218E-01 0.51558E-01 0.10767     0.22243     0.39040     0.54807     0.61851     0.57374     0.43900     0.33879    
 0.62404     0.83799     0.92193     0.93713     0.92060     0.86969     0.76043     0.57777     0.38096     0.23546    
 0.14339     0.85649E-01 0.49045E-01 0.30218E-01 0.26140E-01 0.36347E-01 0.71222E-01 0.15188     0.28667     0.43513    
 0.51903     0.50172     0.43212     0.43899     0.74496     0.88493     0.93713     0.94592     0.93248     0.89062    
 0.79060     0.62265     0.45610     0.33270     0.23545     0.15369     0.90137E-01 0.51558E-01 0.36347E-01 0.38602E-01
 0.60988E-01 0.11815     0.22218     0.35315     0.45609     0.49380     0.50172     0.57374     0.76148     0.87215    
 0.92060     0.93248     0.92060     0.87215     0.76148     0.61851     0.51903     0.45609     0.38097     0.28069    
 0.17986     0.10767     0.71222E-01 0.60988E-01 0.71218E-01 0.10767     0.17985     0.28070     0.38097     0.45610    
 0.51902     0.61851     0.68846     0.80543     0.86969     0.89062     0.87215     0.80240     0.69419     0.62297    
 0.61852     0.62265     0.57778     0.47227     0.33753     0.22243     0.15188     0.11815     0.10767     0.11760    
 0.15192     0.21018     0.28068     0.35316     0.43512     0.54809     0.53185     0.66965     0.76043     0.79060    
 0.76148     0.69419     0.65576     0.69419     0.76148     0.79060     0.76043     0.66965     0.53187     0.39040    
 0.28667     0.22218     0.17985     0.15192     0.14181     0.15193     0.17985     0.22220     0.28666     0.39040    
 0.33753     0.47229     0.57777     0.62265     0.61851     0.62297     0.69419     0.80240     0.87215     0.89062    
 0.86969     0.80542     0.68846     0.54807     0.43513     0.35315     0.28070     0.21018     0.15193     0.11759    
 0.10767     0.11815     0.15187     0.22245     0.17984     0.28069     0.38096     0.45610     0.51903     0.61852    
 0.76148     0.87215     0.92060     0.93248     0.92060     0.87215     0.76149     0.61851     0.51903     0.45609    
 0.38097     0.28068     0.17985     0.10767     0.71222E-01 0.60989E-01 0.71218E-01 0.10767     0.90143E-01 0.15370    
 0.23546     0.33270     0.45609     0.62265     0.79060     0.89062     0.93248     0.94592     0.93713     0.88492    
 0.74496     0.57374     0.50172     0.49380     0.45610     0.35316     0.22220     0.11815     0.60989E-01 0.38601E-01
 0.36347E-01 0.51562E-01 0.49042E-01 0.85640E-01 0.14339     0.23545     0.38097     0.57778     0.76043     0.86969    
 0.92060     0.93713     0.92193     0.83799     0.62404     0.43900     0.43212     0.50172     0.51902     0.43512    
 0.28666     0.15187     0.71218E-01 0.36347E-01 0.26140E-01 0.30217E-01 0.32206E-01 0.50425E-01 0.85649E-01 0.15369    
 0.28069     0.47227     0.66965     0.80542     0.87215     0.88492     0.83799     0.67097     0.42047     0.33879    
 0.43899     0.57374     0.61851     0.54809     0.39040     0.22245     0.10767     0.51562E-01 0.30217E-01 0.25716E-01
 0.27616E-01 0.32203E-01 0.49045E-01 0.90137E-01 0.17986     0.33753     0.53187     0.68846     0.76149     0.74496    
 0.62404     0.42047     0.31865     0.42047     0.62404     0.74496     0.76148     0.68846     0.53185     0.33753    
 0.17984     0.90143E-01 0.49042E-01 0.32206E-01 0.32203E-01 0.25716E-01 0.30218E-01 0.51558E-01 0.10767     0.22243    
 0.39040     0.54807     0.61851     0.57374     0.43900     0.33879     0.42047     0.67097     0.83799     0.88493    
 0.87215     0.80543     0.66965     0.47229     0.28069     0.15370     0.85640E-01 0.50425E-01 0.49045E-01 0.30218E-01
 0.26140E-01 0.36347E-01 0.71222E-01 0.15188     0.28667     0.43513     0.51903     0.50172     0.43212     0.43899    
 0.62404     0.83799     0.92193     0.93713     0.92060     0.86969     0.76043     0.57777     0.38096     0.23546    
 0.14339     0.85649E-01 0.90137E-01 0.51558E-01 0.36347E-01 0.38602E-01 0.60988E-01 0.11815     0.22218     0.35315    
 0.45609     0.49380     0.50172     0.57374     0.74496     0.88493     0.93713     0.94592     0.93248     0.89062    
 0.79060     0.62265     0.45610     0.33270     0.23545     0.15369     0.17986     0.10767     0.71222E-01 0.60988E-01
 0.71218E-01 0.10767     0.17985     0.28070     0.38097     0.45610     0.51902     0.61851     0.76148     0.87215    
 0.92060     0.93248     0.92060     0.87215     0.76148     0.61851     0.51903     0.45609     0.38097     0.28069    
 0.33753     0.22243     0.15188     0.11815     0.10767     0.11760     0.15192     0.21018     0.28068     0.35316    
 0.43512     0.54809     0.68846     0.80543     0.86969     0.89062     0.87215     0.80240     0.69419     0.62297    
 0.61852     0.62265     0.57778     0.47227     0.53187     0.39040     0.28667     0.22218     0.17985     0.15192    
 0.14181     0.15193     0.17985     0.22220     0.28666     0.39040     0.53185     0.66965     0.76043     0.79060    
 0.76148     0.69419     0.65576     0.69419     0.76148     0.79060     0.76043     0.66965     0.68846     0.54807    
 0.43513     0.35315     0.28070     0.21018     0.15193     0.11759     0.10767     0.11815     0.15187     0.22245    
 0.33753     0.47229     0.57777     0.62265     0.61851     0.62297     0.69419     0.80240     0.87215     0.89062    
 0.86969     0.80542     0.76149     0.61851     0.51903     0.45609     0.38097     0.28068     0.17985     0.10767    
 0.71222E-01 0.60989E-01 0.71218E-01 0.10767     0.17984     0.28069     0.38096     0.45610     0.51903     0.61852    
 0.76148     0.87215     0.92060     0.93248     0.92060     0.87215     0.74496     0.57374     0.50172     0.49380    
 0.45610     0.35316     0.22220     0.11815     0.60989E-01 0.38601E-01 0.36347E-01 0.51562E-01 0.90143E-01 0.15370    
 0.23546     0.33270     0.45609     0.62265     0.79060     0.89062     0.93248     0.94592     0.93713     0.88492    
 0.62404     0.43900     0.43212     0.50172     0.51902     0.43512     0.28666     0.15187     0.71218E-01 0.36347E-01
 0.26140E-01 0.30217E-01 0.49042E-01 0.85640E-01 0.14339     0.23545     0.38097     0.57778     0.76043     0.86969    
 0.92060     0.93713     0.92193     0.83799     0.42047     0.33879     0.43899     0.57374     0.61851     0.54809    
 0.39040     0.22245     0.10767     0.51562E-01 0.30217E-01 0.25716E-01 0.32206E-01 0.50425E-01 0.85649E-01 0.15369    
 0.28069     0.47227     0.66965     0.80542     0.87215     0.88492     0.83799     0.67097     0.55934     0.62734    
 0.74496     0.80431     0.79059     0.70467     0.55075     0.36835     0.22218     0.13542     0.90139E-01 0.67871E-01
 0.60989E-01 0.67865E-01 0.90141E-01 0.13541     0.22220     0.36835     0.55078     0.70467     0.79060     0.80431    
 0.74496     0.62733     0.62734     0.78950     0.88493     0.90926     0.89062     0.82823     0.70467     0.52528    
 0.35315     0.23180     0.15369     0.10168     0.67865E-01 0.51550E-01 0.51562E-01 0.69786E-01 0.11815     0.21710    
 0.36835     0.52525     0.62265     0.63109     0.57374     0.53849     0.74496     0.88493     0.93713     0.94592    
 0.93248     0.89062     0.79059     0.62265     0.45609     0.33271     0.23546     0.15371     0.90141E-01 0.51562E-01
 0.36347E-01 0.38601E-01 0.60991E-01 0.11815     0.22220     0.35315     0.45610     0.49380     0.50172     0.57373    
 0.80431     0.90926     0.94592     0.95389     0.94592     0.90926     0.80431     0.63109     0.49380     0.41345    
 0.33270     0.23178     0.13541     0.69786E-01 0.38601E-01 0.30325E-01 0.38601E-01 0.69786E-01 0.13541     0.23178    
 0.33270     0.41345     0.49380     0.63109     0.79059     0.89062     0.93248     0.94592     0.93713     0.88493    
 0.74496     0.57373     0.50172     0.49380     0.45610     0.35315     0.22220     0.11815     0.60991E-01 0.38601E-01
 0.36347E-01 0.51562E-01 0.90141E-01 0.15371     0.23546     0.33271     0.45609     0.62265     0.70467     0.82823    
 0.89062     0.90926     0.88493     0.78950     0.62734     0.53849     0.57374     0.63109     0.62265     0.52525    
 0.36835     0.21710     0.11815     0.69786E-01 0.51562E-01 0.51550E-01 0.67865E-01 0.10168     0.15369     0.23180    
 0.35315     0.52528     0.55075     0.70467     0.79059     0.80431     0.74496     0.62734     0.55934     0.62733    
 0.74496     0.80431     0.79060     0.70467     0.55078     0.36835     0.22220     0.13541     0.90141E-01 0.67865E-01
 0.60989E-01 0.67871E-01 0.90139E-01 0.13542     0.22218     0.36835     0.36835     0.52528     0.62265     0.63109    
 0.57373     0.53849     0.62733     0.78950     0.88493     0.90926     0.89062     0.82822     0.70467     0.52525    
 0.35315     0.23178     0.15371     0.10168     0.67871E-01 0.51549E-01 0.51559E-01 0.69790E-01 0.11815     0.21713    
 0.22218     0.35315     0.45609     0.49380     0.50172     0.57374     0.74496     0.88493     0.93713     0.94592    
 0.93248     0.89062     0.79060     0.62265     0.45610     0.33270     0.23546     0.15369     0.90139E-01 0.51559E-01
 0.36347E-01 0.38602E-01 0.60986E-01 0.11815     0.13542     0.23180     0.33271     0.41345     0.49380     0.63109    
 0.80431     0.90926     0.94592     0.95389     0.94592     0.90926     0.80431     0.63109     0.49380     0.41345    
 0.33271     0.23180     0.13542     0.69790E-01 0.38602E-01 0.30325E-01 0.38602E-01 0.69790E-01 0.90139E-01 0.15369    
 0.23546     0.33270     0.45610     0.62265     0.79060     0.89062     0.93248     0.94592     0.93713     0.88493    
 0.74496     0.57374     0.50172     0.49380     0.45609     0.35315     0.22218     0.11815     0.60986E-01 0.38602E-01
 0.36347E-01 0.51559E-01 0.67871E-01 0.10168     0.15371     0.23178     0.35315     0.52525     0.70467     0.82822    
 0.89062     0.90926     0.88493     0.78950     0.62733     0.53849     0.57373     0.63109     0.62265     0.52528    
 0.36835     0.21713     0.11815     0.69790E-01 0.51559E-01 0.51549E-01 0.60989E-01 0.67865E-01 0.90141E-01 0.13541    
 0.22220     0.36835     0.55078     0.70467     0.79060     0.80431     0.74496     0.62733     0.55934     0.62734    
 0.74496     0.80431     0.79059     0.70467     0.55075     0.36835     0.22218     0.13542     0.90139E-01 0.67871E-01
 0.67865E-01 0.51550E-01 0.51562E-01 0.69786E-01 0.11815     0.21710     0.36835     0.52525     0.62265     0.63109    
 0.57374     0.53849     0.62734     0.78950     0.88493     0.90926     0.89062     0.82823     0.70467     0.52528    
 0.35315     0.23180     0.15369     0.10168     0.90141E-01 0.51562E-01 0.36347E-01 0.38601E-01 0.60991E-01 0.11815    
 0.22220     0.35315     0.45610     0.49380     0.50172     0.57373     0.74496     0.88493     0.93713     0.94592    
 0.93248     0.89062     0.79059     0.62265     0.45609     0.33271     0.23546     0.15371     0.13541     0.69786E-01
 0.38601E-01 0.30325E-01 0.38601E-01 0.69786E-01 0.13541     0.23178     0.33270     0.41345     0.49380     0.63109    
 0.80431     0.90926     0.94592     0.95389     0.94592     0.90926     0.80431     0.63109     0.49380     0.41345    
 0.33270     0.23178     0.22220     0.11815     0.60991E-01 0.38601E-01 0.36347E-01 0.51562E-01 0.90141E-01 0.15371    
 0.23546     0.33271     0.45609     0.62265     0.79059     0.89062     0.93248     0.94592     0.93713     0.88493    
 0.74496     0.57373     0.50172     0.49380     0.45610     0.35315     0.36835     0.21710     0.11815     0.69786E-01
 0.51562E-01 0.51550E-01 0.67865E-01 0.10168     0.15369     0.23180     0.35315     0.52528     0.70467     0.82823    
 0.89062     0.90926     0.88493     0.78950     0.62734     0.53849     0.57374     0.63109     0.62265     0.52525    
 0.55078     0.36835     0.22220     0.13541     0.90141E-01 0.67865E-01 0.60989E-01 0.67871E-01 0.90139E-01 0.13542    
 0.22218     0.36835     0.55075     0.70467     0.79059     0.80431     0.74496     0.62734     0.55934     0.62733    
 0.74496     0.80431     0.79060     0.70467     0.70467     0.52525     0.35315     0.23178     0.15371     0.10168    
 0.67871E-01 0.51549E-01 0.51559E-01 0.69790E-01 0.11815     0.21713     0.36835     0.52528     0.62265     0.63109    
 0.57373     0.53849     0.62733     0.78950     0.88493     0.90926     0.89062     0.82822     0.79060     0.62265    
 0.45610     0.33270     0.23546     0.15369     0.90139E-01 0.51559E-01 0.36347E-01 0.38602E-01 0.60986E-01 0.11815    
 0.22218     0.35315     0.45609     0.49380     0.50172     0.57374     0.74496     0.88493     0.93713     0.94592    
 0.93248     0.89062     0.80431     0.63109     0.49380     0.41345     0.33271     0.23180     0.13542     0.69790E-01
 0.38602E-01 0.30325E-01 0.38602E-01 0.69790E-01 0.13542     0.23180     0.33271     0.41345     0.49380     0.63109    
 0.80431     0.90926     0.94592     0.95389     0.94592     0.90926     0.74496     0.57374     0.50172     0.49380    
 0.45609     0.35315     0.22218     0.11815     0.60986E-01 0.38602E-01 0.36347E-01 0.51559E-01 0.90139E-01 0.15369    
 0.23546     0.33270     0.45610     0.62265     0.79060     0.89062     0.93248     0.94592     0.93713     0.88493    
 0.62733     0.53849     0.57373     0.63109     0.62265     0.52528     0.36835     0.21713     0.11815     0.69790E-01
 0.51559E-01 0.51549E-01 0.67871E-01 0.10168     0.15371     0.23178     0.35315     0.52525     0.70467     0.82822    
 0.89062     0.90926     0.88493     0.78950     0.65576     0.69419     0.76148     0.79060     0.76043     0.66965    
 0.53185     0.39040     0.28666     0.22220     0.17985     0.15193     0.14181     0.15192     0.17985     0.22218    
 0.28667     0.39040     0.53187     0.66965     0.76043     0.79060     0.76148     0.69419     0.69419     0.80240    
 0.87215     0.89062     0.86969     0.80543     0.68846     0.54809     0.43512     0.35316     0.28068     0.21018    
 0.15192     0.11760     0.10767     0.11815     0.15188     0.22243     0.33753     0.47227     0.57778     0.62265    
 0.61852     0.62297     0.76148     0.87215     0.92060     0.93248     0.92060     0.87215     0.76148     0.61851    
 0.51902     0.45610     0.38097     0.28070     0.17985     0.10767     0.71218E-01 0.60988E-01 0.71222E-01 0.10767    
 0.17986     0.28069     0.38097     0.45609     0.51903     0.61851     0.79060     0.89062     0.93248     0.94592    
 0.93713     0.88493     0.74496     0.57374     0.50172     0.49380     0.45609     0.35315     0.22218     0.11815    
 0.60988E-01 0.38602E-01 0.36347E-01 0.51558E-01 0.90137E-01 0.15369     0.23545     0.33270     0.45610     0.62265    
 0.76043     0.86969     0.92060     0.93713     0.92193     0.83799     0.62404     0.43899     0.43212     0.50172    
 0.51903     0.43513     0.28667     0.15188     0.71222E-01 0.36347E-01 0.26140E-01 0.30218E-01 0.49045E-01 0.85649E-01
 0.14339     0.23546     0.38096     0.57777     0.66965     0.80543     0.87215     0.88493     0.83799     0.67097    
 0.42047     0.33879     0.43900     0.57374     0.61851     0.54807     0.39040     0.22243     0.10767     0.51558E-01