       N       E                     dE             d eps       ncg     rms          rms(c)
DAV:   1     0.434038181442E+02    0.43404E+02   -0.79690E+03   420   0.692E+02
DAV:   2    -0.401213073813E+02   -0.83525E+02   -0.79250E+02   560   0.130E+02
DAV:   3    -0.439506863363E+02   -0.38294E+01   -0.37857E+01   560   0.271E+01
DAV:   4    -0.440124622734E+02   -0.61776E-01   -0.61650E-01   532   0.420E+00
DAV:   5    -0.440140804017E+02   -0.16181E-02   -0.16175E-02   521   0.532E-01    0.600E+00
RMM:   6    -0.435184804582E+02    0.49560E+00   -0.27596E-01   423   0.220E+00    0.358E+00
RMM:   7    -0.432919738513E+02    0.22651E+00   -0.60517E-01   426   0.335E+00    0.299E-01
RMM:   8    -0.432972782870E+02   -0.53044E-02   -0.18068E-02   460   0.617E-01    0.444E-02
RMM:   9    -0.432976709863E+02   -0.39270E-03   -0.12937E-03   487   0.173E-01    0.218E-02
RMM:  10    -0.432977443760E+02   -0.73390E-04   -0.23922E-04   466   0.833E-02    0.660E-03
RMM:  11    -0.432977360139E+02    0.83620E-05   -0.16793E-05   485   0.200E-02    0.169E-03
RMM:  12    -0.432977357010E+02    0.31288E-06   -0.96929E-07   320   0.515E-03
   1 F= -.43297736E+02 E0= -.43297736E+02  d E =0.000000E+00
