 vasp.5.4.1 05Feb16 (build Aug 09 2016 09:44:09) complex                        
  
 executed on   Abel-impi-ifc-cuda date 2018.09.04  12:57:35
 running on    4 total cores
 distrk:  each k-point on    4 cores,    1 groups
 distr:  one band on NCORES_PER_BAND=   4 cores,    1 groups


--------------------------------------------------------------------------------------------------------


 INCAR:
 POTCAR:   PAW_PBE Si 05Jan2001                   
 POTCAR:   PAW_PBE Si 05Jan2001                   
   VRHFIN =Si: s2p2                                                             
   LEXCH  = PE                                                                  
   EATOM  =   103.0669 eV,    7.5752 Ry                                         
                                                                                
   TITEL  = PAW_PBE Si 05Jan2001                                                
   LULTRA =        F    use ultrasoft PP ?                                      
   IUNSCR =        1    unscreen: 0-lin 1-nonlin 2-no                           
   RPACOR =    1.500    partial core radius                                     
   POMASS =   28.085; ZVAL   =    4.000    mass and valenz                      
   RCORE  =    1.900    outmost cutoff radius                                   
   RWIGS  =    2.480; RWIGS  =    1.312    wigner-seitz radius (au A)           
   ENMAX  =  245.345; ENMIN  =  184.009 eV                                      
   ICORE  =        2    local potential                                         
   LCOR   =        T    correct aug charges                                     
   LPAW   =        T    paw PP                                                  
   EAUG   =  322.069                                                            
   DEXC   =    -.007                                                            
   RMAX   =    2.944    core radius for proj-oper                               
   RAUG   =    1.300    factor for augmentation sphere                          
   RDEP   =    1.993    radius for radial grids                                 
   QCUT   =   -4.246; QGAM   =    8.493    optimization parameters              
                                                                                
   Description                                                                  
     l     E      TYP  RCUT    TYP  RCUT                                        
     0   .000     23  1.900                                                     
     0   .000     23  1.900                                                     
     1   .000     23  1.900                                                     
     1   .000     23  1.900                                                     
     2   .000      7  1.900                                                     
  local pseudopotential read in
  partial core-charges read in
  atomic valenz-charges read in
  non local Contribution for L=           0  read in
    real space projection operators read in
  non local Contribution for L=           0  read in
    real space projection operators read in
  non local Contribution for L=           1  read in
    real space projection operators read in
  non local Contribution for L=           1  read in
    real space projection operators read in
    PAW grid and wavefunctions read in
 
   number of l-projection  operators is LMAX  =           4
   number of lm-projection operators is LMMAX =           8
 

 ----------------------------------------------------------------------------- 
|                                                                             |
|  ADVICE TO THIS USER RUNNING 'VASP/VAMP'   (HEAR YOUR MASTER'S VOICE ...):  |
|                                                                             |
|      You have a (more or less) 'small supercell' and for smaller cells      |
|      it is recommended  to use the reciprocal-space projection scheme!      |
|      The real space optimization is not  efficient for small cells and it   |
|      is also less accurate ...                                              |
|      Therefore set LREAL=.FALSE. in the  INCAR file                         |
|                                                                             |
 ----------------------------------------------------------------------------- 

 Optimization of the real space projectors (new method)

 maximal supplied QI-value         = 19.84
 optimisation between [QCUT,QGAM] = [  7.94, 16.07] = [ 17.64, 72.34] Ry 
 Optimized for a Real-space Cutoff    1.55 Angstroem

   l    n(q)    QCUT    max X(q) W(low)/X(q) W(high)/X(q)  e(spline) 
   0      7     7.937     8.708    0.25E-04    0.20E-04    0.11E-07
   0      7     7.937   106.241    0.95E-04    0.31E-03    0.13E-06
   1      7     7.937     5.901    0.19E-04    0.32E-04    0.50E-07
   1      7     7.937    73.241    0.39E-03    0.64E-03    0.12E-06
 PAW_PBE Si 05Jan2001                   :
 energy of atom  1       EATOM= -103.0669
 kinetic energy error for atom=    0.0052 (will be added to EATOM!!)
 
 
 POSCAR: Si_bulk_icsd_60385                      
  positions in direct lattice
  No initial velocities read in
 exchange correlation table for  LEXCH =        8
   RHO(1)=    0.500       N(1)  =     2000
   RHO(2)=  100.500       N(2)  =     4000
 


--------------------------------------------------------------------------------------------------------


 ion  position               nearest neighbor table
   1  0.000  0.000  0.000-   5 2.35   6 2.35   7 2.35   8 2.35
   2  0.000  0.500  0.500-   5 2.35   6 2.35   7 2.35   8 2.35
   3  0.500  0.000  0.500-   5 2.35   6 2.35   7 2.35   8 2.35
   4  0.500  0.500  0.000-   5 2.35   6 2.35   7 2.35   8 2.35
   5  0.250  0.250  0.250-   1 2.35   2 2.35   3 2.35   4 2.35
   6  0.250  0.750  0.750-   1 2.35   2 2.35   3 2.35   4 2.35
   7  0.750  0.250  0.750-   1 2.35   2 2.35   3 2.35   4 2.35
   8  0.750  0.750  0.250-   1 2.35   2 2.35   3 2.35   4 2.35
 
  LATTYP: Found a simple cubic cell.
 ALAT       =     5.4310100000
  
  Lattice vectors:
  
 A1 = (   5.4310100000,   0.0000000000,   0.0000000000)
 A2 = (   0.0000000000,   5.4310100000,   0.0000000000)
 A3 = (   0.0000000000,   0.0000000000,   5.4310100000)


Analysis of symmetry for initial positions (statically):
=====================================================================
 Subroutine PRICEL returns following result:
 
  LATTYP: Found a face centered cubic cell.
 ALAT       =     5.4310100000
  
  Lattice vectors:
  
 A1 = (   2.7155050000,   2.7155050000,   0.0000000000)
 A2 = (   2.7155050000,   0.0000000000,  -2.7155050000)
 A3 = (   0.0000000000,   2.7155050000,  -2.7155050000)
 
   4 primitive cells build up your supercell.
 

 Routine SETGRP: Setting up the symmetry group for a 
 simple cubic supercell.


 Subroutine GETGRP returns: Found 48 space group operations
 (whereof 24 operations were pure point group operations)
 out of a pool of 48 trial point group operations.


The static configuration has the point symmetry T_d .
 The point group associated with its full space group is O_h .


Analysis of symmetry for dynamics (positions and initial velocities):
=====================================================================
 Subroutine PRICEL returns following result:
 
  LATTYP: Found a face centered cubic cell.
 ALAT       =     5.4310100000
  
  Lattice vectors:
  
 A1 = (   2.7155050000,   2.7155050000,   0.0000000000)
 A2 = (   2.7155050000,   0.0000000000,  -2.7155050000)
 A3 = (   0.0000000000,   2.7155050000,  -2.7155050000)
 
   4 primitive cells build up your supercell.
 

 Routine SETGRP: Setting up the symmetry group for a 
 simple cubic supercell.


 Subroutine GETGRP returns: Found 48 space group operations
 (whereof 24 operations were pure point group operations)
 out of a pool of 48 trial point group operations.


The dynamic configuration has the point symmetry T_d .
 The point group associated with its full space group is O_h .


 Subroutine INISYM returns: Found 48 space group operations
 (whereof 24 operations are pure point group operations),
 and found     4 'primitive' translations

 
 
 KPOINTS: Max k-point distance: 0.250000          

Automatic generation of k-mesh.
Space group operators:
 irot       det(A)        alpha          n_x          n_y          n_z        tau_x        tau_y        tau_z
    1     1.000000     0.000000     1.000000     0.000000     0.000000     0.000000     0.000000     0.000000
    2     1.000000   120.000000    -0.577350    -0.577350    -0.577350     0.000000     0.000000     0.000000
    3     1.000000   120.000000     0.577350     0.577350     0.577350     0.000000     0.000000     0.000000
    4    -1.000000    90.000000     0.000000     0.000000    -1.000000     0.000000     0.000000     0.000000
    5    -1.000000   180.000000     0.000000     0.707107     0.707107     0.000000     0.000000     0.000000
    6    -1.000000    90.000000     0.000000     1.000000     0.000000     0.000000     0.000000     0.000000
    7     1.000000   180.000000     0.000000     0.000000     1.000000     0.000000     0.000000     0.000000
    8     1.000000   120.000000    -0.577350     0.577350     0.577350     0.000000     0.000000     0.000000
    9     1.000000   120.000000    -0.577350     0.577350    -0.577350     0.000000     0.000000     0.000000
   10    -1.000000    90.000000     0.000000     0.000000     1.000000     0.000000     0.000000     0.000000
   11    -1.000000    90.000000    -1.000000     0.000000     0.000000     0.000000     0.000000     0.000000
   12    -1.000000   180.000000     0.707107     0.000000     0.707107     0.000000     0.000000     0.000000
   13     1.000000   120.000000     0.577350    -0.577350     0.577350     0.000000     0.000000     0.000000
   14     1.000000   120.000000    -0.577350    -0.577350     0.577350     0.000000     0.000000     0.000000
   15     1.000000   180.000000     1.000000     0.000000     0.000000     0.000000     0.000000     0.000000
   16    -1.000000    90.000000     0.000000    -1.000000     0.000000     0.000000     0.000000     0.000000
   17    -1.000000   180.000000     0.707107     0.707107     0.000000     0.000000     0.000000     0.000000
   18    -1.000000    90.000000     1.000000     0.000000     0.000000     0.000000     0.000000     0.000000
   19     1.000000   120.000000     0.577350    -0.577350    -0.577350     0.000000     0.000000     0.000000
   20     1.000000   180.000000     0.000000     1.000000     0.000000     0.000000     0.000000     0.000000
   21     1.000000   120.000000     0.577350     0.577350    -0.577350     0.000000     0.000000     0.000000
   22    -1.000000   180.000000     0.000000    -0.707107     0.707107     0.000000     0.000000     0.000000
   23    -1.000000   180.000000     0.707107    -0.707107     0.000000     0.000000     0.000000     0.000000
   24    -1.000000   180.000000     0.707107     0.000000    -0.707107     0.000000     0.000000     0.000000
   25    -1.000000     0.000000     1.000000     0.000000     0.000000     0.750000     0.750000    -0.750000
   26    -1.000000   120.000000    -0.577350    -0.577350    -0.577350     0.750000     0.750000    -0.750000
   27    -1.000000   120.000000     0.577350     0.577350     0.577350     0.750000     0.750000    -0.750000
   28     1.000000    90.000000     0.000000     0.000000    -1.000000     0.750000     0.750000    -0.750000
   29     1.000000   180.000000     0.000000     0.707107     0.707107     0.750000     0.750000    -0.750000
   30     1.000000    90.000000     0.000000     1.000000     0.000000     0.750000     0.750000    -0.750000
   31    -1.000000   180.000000     0.000000     0.000000     1.000000     0.750000     0.750000    -0.750000
   32    -1.000000   120.000000    -0.577350     0.577350     0.577350     0.750000     0.750000    -0.750000
   33    -1.000000   120.000000    -0.577350     0.577350    -0.577350     0.750000     0.750000    -0.750000
   34     1.000000    90.000000     0.000000     0.000000     1.000000     0.750000     0.750000    -0.750000
   35     1.000000    90.000000    -1.000000     0.000000     0.000000     0.750000     0.750000    -0.750000
   36     1.000000   180.000000     0.707107     0.000000     0.707107     0.750000     0.750000    -0.750000
   37    -1.000000   120.000000     0.577350    -0.577350     0.577350     0.750000     0.750000    -0.750000
   38    -1.000000   120.000000    -0.577350    -0.577350     0.577350     0.750000     0.750000    -0.750000
   39    -1.000000   180.000000     1.000000     0.000000     0.000000     0.750000     0.750000    -0.750000
   40     1.000000    90.000000     0.000000    -1.000000     0.000000     0.750000     0.750000    -0.750000
   41     1.000000   180.000000     0.707107     0.707107     0.000000     0.750000     0.750000    -0.750000
   42     1.000000    90.000000     1.000000     0.000000     0.000000     0.750000     0.750000    -0.750000
   43    -1.000000   120.000000     0.577350    -0.577350    -0.577350     0.750000     0.750000    -0.750000
   44    -1.000000   180.000000     0.000000     1.000000     0.000000     0.750000     0.750000    -0.750000
   45    -1.000000   120.000000     0.577350     0.577350    -0.577350     0.750000     0.750000    -0.750000
   46     1.000000   180.000000     0.000000    -0.707107     0.707107     0.750000     0.750000    -0.750000
   47     1.000000   180.000000     0.707107    -0.707107     0.000000     0.750000     0.750000    -0.750000
   48     1.000000   180.000000     0.707107     0.000000    -0.707107     0.750000     0.750000    -0.750000
 
 Subroutine IBZKPT returns following result:
 ===========================================
 
 Found     10 irreducible k-points:
 
 Following reciprocal coordinates:
            Coordinates               Weight
  0.000000  0.000000  0.000000      1.000000
  0.200000  0.000000  0.000000      6.000000
  0.400000  0.000000  0.000000      6.000000
  0.200000  0.200000  0.000000     12.000000
  0.400000  0.200000  0.000000     24.000000
  0.400000  0.400000  0.000000     12.000000
  0.200000  0.200000  0.200000      8.000000
  0.400000  0.200000  0.200000     24.000000
  0.400000  0.400000  0.200000     24.000000
  0.400000  0.400000  0.400000      8.000000
 
 Following cartesian coordinates:
            Coordinates               Weight
  0.000000  0.000000  0.000000      1.000000
  0.036826  0.000000  0.000000      6.000000
  0.073651  0.000000  0.000000      6.000000
  0.036826  0.036826  0.000000     12.000000
  0.073651  0.036826  0.000000     24.000000
  0.073651  0.073651  0.000000     12.000000
  0.036826  0.036826  0.036826      8.000000
  0.073651  0.036826  0.036826     24.000000
  0.073651  0.073651  0.036826     24.000000
  0.073651  0.073651  0.073651      8.000000
 
 TETIRR: Found     57 inequivalent tetrahedra from      750


--------------------------------------------------------------------------------------------------------




 Dimension of arrays:
   k-points           NKPTS =     10   k-points in BZ     NKDIM =     10   number of bands    NBANDS=     21
   number of dos      NEDOS =   2401   number of ions     NIONS =      8
   non local maximal  LDIM  =      4   non local SUM 2l+1 LMDIM =      8
   total plane-waves  NPLWV =  13824
   max r-space proj   IRMAX =   1400   max aug-charges    IRDMAX=   3084
   dimension x,y,z NGX =    24 NGY =   24 NGZ =   24
   dimension x,y,z NGXF=    48 NGYF=   48 NGZF=   48
   support grid    NGXF=    48 NGYF=   48 NGZF=   48
   ions per type =               8
 NGX,Y,Z   is equivalent  to a cutoff of   7.35,  7.35,  7.35 a.u.
 NGXF,Y,Z  is equivalent  to a cutoff of  14.69, 14.69, 14.69 a.u.


 I would recommend the setting:
   dimension x,y,z NGX =    21 NGY =   21 NGZ =   21
 SYSTEM =  unknown system                          
 POSCAR =  Si_bulk_icsd_60385                      

 Startparameter for this run:
   NWRITE =      2    write-flag & timer
   PREC   = normal    normal or accurate (medium, high low for compatibility)
   ISTART =      0    job   : 0-new  1-cont  2-samecut
   ICHARG =      2    charge: 1-file 2-atom 10-const
   ISPIN  =      1    spin polarized calculation?
   LNONCOLLINEAR =      F non collinear calculations
   LSORBIT =      F    spin-orbit coupling
   INIWAV =      1    electr: 0-lowe 1-rand  2-diag
   LASPH  =      F    aspherical Exc in radial PAW
   METAGGA=      F    non-selfconsistent MetaGGA calc.

 Electronic Relaxation 1
   ENCUT  =  250.0 eV  18.37 Ry    4.29 a.u.   7.00  7.00  7.00*2*pi/ulx,y,z
   ENINI  =  250.0     initial cutoff
   ENAUG  =  322.1 eV  augmentation charge cutoff
   NELM   =     60;   NELMIN=  4; NELMDL=  0     # of ELM steps 
   EDIFF  = 0.1E-05   stopping-criterion for ELM
   LREAL  =      T    real-space projection
   NLSPLINE    = F    spline interpolate recip. space projectors
   LCOMPAT=      F    compatible to vasp.4.4
   GGA_COMPAT  = T    GGA compatible to vasp.4.4-vasp.4.6
   LMAXPAW     = -100 max onsite density
   LMAXMIX     =    2 max onsite mixed and CHGCAR
   VOSKOWN=      0    Vosko Wilk Nusair interpolation
   ROPT   =   -0.00050
 Ionic relaxation
   EDIFFG = 0.1E-04   stopping-criterion for IOM
   NSW    =      0    number of steps for IOM
   NBLOCK =      1;   KBLOCK =      1    inner block; outer block 
   IBRION =     -1    ionic relax: 0-MD 1-quasi-New 2-CG
   NFREE  =      0    steps in history (QN), initial steepest desc. (CG)
   ISIF   =      2    stress and relaxation
   IWAVPR =     10    prediction:  0-non 1-charg 2-wave 3-comb
   ISYM   =      2    0-nonsym 1-usesym 2-fastsym
   LCORR  =      T    Harris-Foulkes like correction to forces

   POTIM  = 0.5000    time-step for ionic-motion
   TEIN   =    0.0    initial temperature
   TEBEG  =    0.0;   TEEND  =   0.0 temperature during run
   SMASS  =  -3.00    Nose mass-parameter (am)
   estimated Nose-frequenzy (Omega)   =  0.10E-29 period in steps =****** mass=  -0.674E-27a.u.
   SCALEE = 1.0000    scale energy and forces
   NPACO  =    256;   APACO  = 16.0  distance and # of slots for P.C.
   PSTRESS=    0.0 pullay stress

  Mass of Ions in am
   POMASS =  28.09
  Ionic Valenz
   ZVAL   =   4.00
  Atomic Wigner-Seitz radii
   RWIGS  =  -1.00
  virtual crystal weights 
   VCA    =   1.00
   NELECT =      32.0000    total number of electrons
   NUPDOWN=      -1.0000    fix difference up-down

 DOS related values:
   EMIN   = -12.00;   EMAX   = 12.00  energy-range for DOS
   EFERMI =   0.00
   ISMEAR =    -5;   SIGMA  =   0.20  broadening in eV -4-tet -1-fermi 0-gaus

 Electronic relaxation 2 (details)
   IALGO  =     68    algorithm
   LDIAG  =      T    sub-space diagonalisation (order eigenvalues)
   LSUBROT=      F    optimize rotation matrix (better conditioning)
   TURBO    =      0    0=normal 1=particle mesh
   IRESTART =      0    0=no restart 2=restart with 2 vectors
   NREBOOT  =      0    no. of reboots
   NMIN     =      0    reboot dimension
   EREF     =   0.00    reference energy to select bands
   IMIX   =      4    mixing-type and parameters
     AMIX     =   0.40;   BMIX     =  1.00
     AMIX_MAG =   1.60;   BMIX_MAG =  1.00
     AMIN     =   0.10
     WC   =   100.;   INIMIX=   1;  MIXPRE=   1;  MAXMIX= -45

 Intra band minimization:
   WEIMIN = 0.0000     energy-eigenvalue tresh-hold
   EBREAK =  0.12E-07  absolut break condition
   DEPER  =   0.30     relativ break condition  

   TIME   =   0.40     timestep for ELM

  volume/ion in A,a.u.               =      20.02       135.13
  Fermi-wavevector in a.u.,A,eV,Ry     =   0.956998  1.808463 12.460822  0.915845
  Thomas-Fermi vector in A             =   2.085976
 
 Write flags
   LWAVE  =      F    write WAVECAR
   LCHARG =      T    write CHGCAR
   LVTOT  =      F    write LOCPOT, total local potential
   LVHAR  =      F    write LOCPOT, Hartree potential only
   LELF   =      T    write electronic localiz. function (ELF)
   LORBIT =     11    0 simple, 1 ext, 2 COOP (PROOUT)


 Dipole corrections
   LMONO  =      F    monopole corrections only (constant potential shift)
   LDIPOL =      F    correct potential (dipole corrections)
   IDIPOL =      0    1-x, 2-y, 3-z, 4-all directions 
   EPSILON=  1.0000000 bulk dielectric constant

 Exchange correlation treatment:
   GGA     =    --    GGA type
   LEXCH   =     8    internal setting for exchange type
   VOSKOWN=      0    Vosko Wilk Nusair interpolation
   LHFCALC =     F    Hartree Fock is set to
   LHFONE  =     F    Hartree Fock one center treatment
   AEXX    =    0.0000 exact exchange contribution

 Linear response parameters
   LEPSILON=     F    determine dielectric tensor
   LRPA    =     F    only Hartree local field effects (RPA)
   LNABLA  =     F    use nabla operator in PAW spheres
   LVEL    =     F    velocity operator in full k-point grid
   LINTERFAST=   F  fast interpolation
   KINTER  =     0    interpolate to denser k-point grid
   CSHIFT  =0.1000    complex shift for real part using Kramers Kronig
   OMEGAMAX=  -1.0    maximum frequency
   DEG_THRESHOLD= 0.2000000E-02 threshold for treating states as degnerate
   RTIME   =    0.100 relaxation time in fs

 Orbital magnetization related:
   ORBITALMAG=     F  switch on orbital magnetization
   LCHIMAG   =     F  perturbation theory with respect to B field
   DQ        =  0.001000  dq finite difference perturbation B field



--------------------------------------------------------------------------------------------------------


 Static calculation
 charge density and potential will be updated during run
 non-spin polarized calculation
 RMM-DIIS sequential band-by-band and
  variant of blocked Davidson during initial phase
 perform sub-space diagonalisation
    before iterative eigenvector-optimisation
 modified Broyden-mixing scheme, WC =      100.0
 initial mixing is a Kerker type mixing with AMIX =  0.4000 and BMIX =      1.0000
 Hartree-type preconditioning will be used
 using additional bands            5
 real space projection scheme for non local part
 use partial core corrections
 calculate Harris-corrections to forces 
   (improved forces if not selfconsistent)
 use gradient corrections 
 use of overlap-Matrix (Vanderbilt PP)
 Fermi weights with tetrahedron method with Bloechl corrections


--------------------------------------------------------------------------------------------------------


  energy-cutoff  :      250.00
  volume of cell :      160.19
      direct lattice vectors                 reciprocal lattice vectors
     5.431010000  0.000000000  0.000000000     0.184127814  0.000000000  0.000000000
     0.000000000  5.431010000  0.000000000     0.000000000  0.184127814  0.000000000
     0.000000000  0.000000000  5.431010000     0.000000000  0.000000000  0.184127814

  length of vectors
     5.431010000  5.431010000  5.431010000     0.184127814  0.184127814  0.184127814


 
 k-points in units of 2pi/SCALE and weight: Max k-point distance: 0.250000          
   0.00000000  0.00000000  0.00000000       0.008
   0.03682556  0.00000000  0.00000000       0.048
   0.07365113  0.00000000  0.00000000       0.048
   0.03682556  0.03682556  0.00000000       0.096
   0.07365113  0.03682556  0.00000000       0.192
   0.07365113  0.07365113  0.00000000       0.096
   0.03682556  0.03682556  0.03682556       0.064
   0.07365113  0.03682556  0.03682556       0.192
   0.07365113  0.07365113  0.03682556       0.192
   0.07365113  0.07365113  0.07365113       0.064
 
 k-points in reciprocal lattice and weights: Max k-point distance: 0.250000          
   0.00000000  0.00000000  0.00000000       0.008
   0.20000000  0.00000000  0.00000000       0.048
   0.40000000  0.00000000  0.00000000       0.048
   0.20000000  0.20000000  0.00000000       0.096
   0.40000000  0.20000000  0.00000000       0.192
   0.40000000  0.40000000  0.00000000       0.096
   0.20000000  0.20000000  0.20000000       0.064
   0.40000000  0.20000000  0.20000000       0.192
   0.40000000  0.40000000  0.20000000       0.192
   0.40000000  0.40000000  0.40000000       0.064
 
 position of ions in fractional coordinates (direct lattice) 
   0.00000000  0.00000000  0.00000000
   0.00000000  0.50000000  0.50000000
   0.50000000  0.00000000  0.50000000
   0.50000000  0.50000000  0.00000000
   0.25000000  0.25000000  0.25000000
   0.25000000  0.75000000  0.75000000
   0.75000000  0.25000000  0.75000000
   0.75000000  0.75000000  0.25000000
 
 position of ions in cartesian coordinates  (Angst):
   0.00000000  0.00000000  0.00000000
   0.00000000  2.71550500  2.71550500
   2.71550500  0.00000000  2.71550500
   2.71550500  2.71550500  0.00000000
   1.35775250  1.35775250  1.35775250
   1.35775250  4.07325750  4.07325750
   4.07325750  1.35775250  4.07325750
   4.07325750  4.07325750  1.35775250
 


--------------------------------------------------------------------------------------------------------


 k-point  1 :   0.0000 0.0000 0.0000  plane waves:    1419
 k-point  2 :   0.2000 0.0000 0.0000  plane waves:    1422
 k-point  3 :   0.4000 0.0000 0.0000  plane waves:    1438
 k-point  4 :   0.2000 0.2000 0.0000  plane waves:    1426
 k-point  5 :   0.4000 0.2000 0.0000  plane waves:    1437
 k-point  6 :   0.4000 0.4000 0.0000  plane waves:    1432
 k-point  7 :   0.2000 0.2000 0.2000  plane waves:    1430
 k-point  8 :   0.4000 0.2000 0.2000  plane waves:    1438
 k-point  9 :   0.4000 0.4000 0.2000  plane waves:    1446
 k-point 10 :   0.4000 0.4000 0.4000  plane waves:    1445

 maximum and minimum number of plane-waves per node :       366      344

 maximum number of plane-waves:      1446
 maximum index in each direction: 
   IXMAX=    7   IYMAX=    7   IZMAX=    7
   IXMIN=   -7   IYMIN=   -7   IZMIN=   -7

 WARNING: aliasing errors must be expected set NGX to  30 to avoid them
 WARNING: aliasing errors must be expected set NGY to  30 to avoid them
 WARNING: aliasing errors must be expected set NGZ to  30 to avoid them
 aliasing errors are usually negligible using standard VASP settings
 and one can safely disregard these warnings

 real space projection operators:
  total allocation   :        678.50 KBytes
  max/ min on nodes  :        171.75        167.50


 parallel 3D FFT for wavefunctions:
    minimum data exchange during FFTs selected (reduces bandwidth)
 parallel 3D FFT for charge:
    minimum data exchange during FFTs selected (reduces bandwidth)


 total amount of memory used by VASP on root node    34259. kBytes
========================================================================

   base      :      30000. kBytes
   nonlr-proj:        401. kBytes
   fftplans  :       1068. kBytes
   grid      :       1504. kBytes
   one-center:          6. kBytes
   wavefun   :       1280. kBytes
 
     INWAV:  cpu time    0.0000: real time    0.0000
 Broyden mixing: mesh for mixing (old mesh)
   NGX = 15   NGY = 15   NGZ = 15
  (NGX  = 48   NGY  = 48   NGZ  = 48)
  gives a total of   3375 points

 initial charge density was supplied:
 charge density of overlapping atoms calculated
 number of electron      32.0000000 magnetization 
 keeping initial charge density in first step


--------------------------------------------------------------------------------------------------------


 Maximum index for non-local projection operator          348
 Maximum index for augmentation-charges          685 (set IRDMAX)


--------------------------------------------------------------------------------------------------------


 First call to EWALD:  gamma=   0.326
 Maximum number of real-space cells 3x 3x 3
 Maximum number of reciprocal cells 3x 3x 3

 FEWALD executed in parallel
    FEWALD:  cpu time    0.0020: real time    0.0015


----------------------------------------- Iteration    1(   1)  ---------------------------------------


    POTLOK:  cpu time    0.0140: real time    0.0151
    SETDIJ:  cpu time    0.0040: real time    0.0036
     EDDAV:  cpu time    0.1440: real time    0.1452
 BZINTS: Fermi energy: 10.923223; 32.000000 electrons
         Band energy:  97.252051;  BLOECHL correction: -0.212622
       DOS:  cpu time    0.0020: real time    0.0027
    --------------------------------------------
      LOOP:  cpu time    0.1670: real time    0.1730

 eigenvalue-minimisations  :   420
 total energy-change (2. order) : 0.4340382E+02  (-0.7969012E+03)
 number of electron      32.0000000 magnetization 
 augmentation part       32.0000000 magnetization 

 Free energy of the ion-electron system (eV)
  ---------------------------------------------------
  alpha Z        PSCENC =        13.44906198
  Ewald energy   TEWEN  =      -914.08410953
  -Hartree energ DENC   =       -44.03783020
  -exchange      EXHF   =         0.00000000
  -V(xc)+E(xc)   XCENC  =       -74.41607736
  PAW double counting   =       263.82083246     -123.07410713
  entropy T*S    EENTRO =         0.00000000
  eigenvalues    EBANDS =        97.25205102
  atomic energy  EATOM  =       824.49399690
  Solvation  Ediel_sol  =         0.00000000
  ---------------------------------------------------
  free energy    TOTEN  =        43.40381814 eV

  energy without entropy =       43.40381814  energy(sigma->0) =       43.40381814


--------------------------------------------------------------------------------------------------------




----------------------------------------- Iteration    1(   2)  ---------------------------------------


     EDDAV:  cpu time    0.1790: real time    0.1806
 BZINTS: Fermi energy:  6.060000; 32.000000 electrons
         Band energy:  13.726925;  BLOECHL correction:  0.000000
       DOS:  cpu time    0.0030: real time    0.0027
    --------------------------------------------
      LOOP:  cpu time    0.1830: real time    0.1863

 eigenvalue-minimisations  :   560
 total energy-change (2. order) :-0.8352513E+02  (-0.7925030E+02)
 number of electron      32.0000000 magnetization 
 augmentation part       32.0000000 magnetization 

 Free energy of the ion-electron system (eV)
  ---------------------------------------------------
  alpha Z        PSCENC =        13.44906198
  Ewald energy   TEWEN  =      -914.08410953
  -Hartree energ DENC   =       -44.03783020
  -exchange      EXHF   =         0.00000000
  -V(xc)+E(xc)   XCENC  =       -74.41607736
  PAW double counting   =       263.82083246     -123.07410713
  entropy T*S    EENTRO =         0.00000000
  eigenvalues    EBANDS =        13.72692549
  atomic energy  EATOM  =       824.49399690
  Solvation  Ediel_sol  =         0.00000000
  ---------------------------------------------------
  free energy    TOTEN  =       -40.12130738 eV

  energy without entropy =      -40.12130738  energy(sigma->0) =      -40.12130738


--------------------------------------------------------------------------------------------------------




----------------------------------------- Iteration    1(   3)  ---------------------------------------


     EDDAV:  cpu time    0.1790: real time    0.1794
 BZINTS: Fermi energy:  5.320000; 32.000000 electrons
         Band energy:   9.897547;  BLOECHL correction: -0.000000
       DOS:  cpu time    0.0020: real time    0.0021
    --------------------------------------------
      LOOP:  cpu time    0.1820: real time    0.1857

 eigenvalue-minimisations  :   560
 total energy-change (2. order) :-0.3829379E+01  (-0.3785743E+01)
 number of electron      32.0000000 magnetization 
 augmentation part       32.0000000 magnetization 

 Free energy of the ion-electron system (eV)
  ---------------------------------------------------
  alpha Z        PSCENC =        13.44906198
  Ewald energy   TEWEN  =      -914.08410953
  -Hartree energ DENC   =       -44.03783020
  -exchange      EXHF   =         0.00000000
  -V(xc)+E(xc)   XCENC  =       -74.41607736
  PAW double counting   =       263.82083246     -123.07410713
  entropy T*S    EENTRO =         0.00000000
  eigenvalues    EBANDS =         9.89754654
  atomic energy  EATOM  =       824.49399690
  Solvation  Ediel_sol  =         0.00000000
  ---------------------------------------------------
  free energy    TOTEN  =       -43.95068634 eV

  energy without entropy =      -43.95068634  energy(sigma->0) =      -43.95068634


--------------------------------------------------------------------------------------------------------




----------------------------------------- Iteration    1(   4)  ---------------------------------------


     EDDAV:  cpu time    0.1700: real time    0.1699
 BZINTS: Fermi energy:  5.280000; 32.000000 electrons
         Band energy:   9.835771;  BLOECHL correction:  0.000000
       DOS:  cpu time    0.0020: real time    0.0020
    --------------------------------------------
      LOOP:  cpu time    0.1730: real time    0.1756

 eigenvalue-minimisations  :   532
 total energy-change (2. order) :-0.6177594E-01  (-0.6165030E-01)
 number of electron      32.0000000 magnetization 
 augmentation part       32.0000000 magnetization 

 Free energy of the ion-electron system (eV)
  ---------------------------------------------------
  alpha Z        PSCENC =        13.44906198
  Ewald energy   TEWEN  =      -914.08410953
  -Hartree energ DENC   =       -44.03783020
  -exchange      EXHF   =         0.00000000
  -V(xc)+E(xc)   XCENC  =       -74.41607736
  PAW double counting   =       263.82083246     -123.07410713
  entropy T*S    EENTRO =         0.00000000
  eigenvalues    EBANDS =         9.83577060
  atomic energy  EATOM  =       824.49399690
  Solvation  Ediel_sol  =         0.00000000
  ---------------------------------------------------
  free energy    TOTEN  =       -44.01246227 eV

  energy without entropy =      -44.01246227  energy(sigma->0) =      -44.01246227


--------------------------------------------------------------------------------------------------------




----------------------------------------- Iteration    1(   5)  ---------------------------------------


     EDDAV:  cpu time    0.1660: real time    0.1664
 BZINTS: Fermi energy:  5.280000; 32.000000 electrons
         Band energy:   9.834152;  BLOECHL correction:  0.000000
       DOS:  cpu time    0.0020: real time    0.0020
    CHARGE:  cpu time    0.0140: real time    0.0144
    MIXING:  cpu time    0.0010: real time    0.0007
    --------------------------------------------
      LOOP:  cpu time    0.1830: real time    0.1875

 eigenvalue-minimisations  :   521
 total energy-change (2. order) :-0.1618128E-02  (-0.1617465E-02)
 number of electron      32.0000060 magnetization 
 augmentation part       -1.8778244 magnetization 

 Broyden mixing:
  rms(total) = 0.59981E+00    rms(broyden)= 0.59980E+00
  rms(prec ) = 0.11178E+01
  weight for this iteration     100.00

 Free energy of the ion-electron system (eV)
  ---------------------------------------------------
  alpha Z        PSCENC =        13.44906198
  Ewald energy   TEWEN  =      -914.08410953
  -Hartree energ DENC   =       -44.03783020
  -exchange      EXHF   =         0.00000000
  -V(xc)+E(xc)   XCENC  =       -74.41607736
  PAW double counting   =       263.82083246     -123.07410713
  entropy T*S    EENTRO =         0.00000000
  eigenvalues    EBANDS =         9.83415247
  atomic energy  EATOM  =       824.49399690
  Solvation  Ediel_sol  =         0.00000000
  ---------------------------------------------------
  free energy    TOTEN  =       -44.01408040 eV

  energy without entropy =      -44.01408040  energy(sigma->0) =      -44.01408040


--------------------------------------------------------------------------------------------------------




----------------------------------------- Iteration    1(   6)  ---------------------------------------


    POTLOK:  cpu time    0.0130: real time    0.0136
    SETDIJ:  cpu time    0.0030: real time    0.0027
    EDDIAG:  cpu time    0.0240: real time    0.0248
  RMM-DIIS:  cpu time    0.1040: real time    0.1042
    ORTHCH:  cpu time    0.0020: real time    0.0020
 BZINTS: Fermi energy:  5.510000; 32.000000 electrons
         Band energy:  15.794549;  BLOECHL correction:  0.000000
       DOS:  cpu time    0.0030: real time    0.0021
    CHARGE:  cpu time    0.0140: real time    0.0142
    MIXING:  cpu time    0.0010: real time    0.0007
    --------------------------------------------
      LOOP:  cpu time    0.1650: real time    0.1676

 eigenvalue-minimisations  :   423
 total energy-change (2. order) : 0.4955999E+00  (-0.2759634E-01)
 number of electron      32.0000059 magnetization 
 augmentation part       -1.8550583 magnetization 

 Broyden mixing:
  rms(total) = 0.35781E+00    rms(broyden)= 0.35781E+00
  rms(prec ) = 0.66414E+00
  weight for this iteration     100.00

 eigenvalues of (default mixing * dielectric matrix)
  average eigenvalue GAMMA=   2.4592
  2.4592

 Free energy of the ion-electron system (eV)
  ---------------------------------------------------
  alpha Z        PSCENC =        13.44906198
  Ewald energy   TEWEN  =      -914.08410953
  -Hartree energ DENC   =       -50.01153783
  -exchange      EXHF   =         0.00000000
  -V(xc)+E(xc)   XCENC  =       -73.45555798
  PAW double counting   =       280.76799743     -140.47288033
  entropy T*S    EENTRO =         0.00000000
  eigenvalues    EBANDS =        15.79454890
  atomic energy  EATOM  =       824.49399690
  Solvation  Ediel_sol  =         0.00000000
  ---------------------------------------------------
  free energy    TOTEN  =       -43.51848046 eV

  energy without entropy =      -43.51848046  energy(sigma->0) =      -43.51848046


--------------------------------------------------------------------------------------------------------




----------------------------------------- Iteration    1(   7)  ---------------------------------------


    POTLOK:  cpu time    0.0130: real time    0.0136
    SETDIJ:  cpu time    0.0030: real time    0.0027
    EDDIAG:  cpu time    0.0240: real time    0.0244
  RMM-DIIS:  cpu time    0.1040: real time    0.1040
    ORTHCH:  cpu time    0.0020: real time    0.0019
 BZINTS: Fermi energy:  5.860000; 32.000000 electrons
         Band energy:  24.874443;  BLOECHL correction:  0.000000
       DOS:  cpu time    0.0020: real time    0.0021
    CHARGE:  cpu time    0.0140: real time    0.0135
    MIXING:  cpu time    0.0010: real time    0.0005
    --------------------------------------------
      LOOP:  cpu time    0.1630: real time    0.1667

 eigenvalue-minimisations  :   426
 total energy-change (2. order) : 0.2265066E+00  (-0.6051750E-01)
 number of electron      32.0000058 magnetization 
 augmentation part       -1.8265614 magnetization 

 Broyden mixing:
  rms(total) = 0.29949E-01    rms(broyden)= 0.29948E-01
  rms(prec ) = 0.51260E-01
  weight for this iteration     100.00

 eigenvalues of (default mixing * dielectric matrix)
  average eigenvalue GAMMA=   2.5199
  2.5199  2.5199

 Free energy of the ion-electron system (eV)
  ---------------------------------------------------
  alpha Z        PSCENC =        13.44906198
  Ewald energy   TEWEN  =      -914.08410953
  -Hartree energ DENC   =       -59.87824457
  -exchange      EXHF   =         0.00000000
  -V(xc)+E(xc)   XCENC  =       -71.84864996
  PAW double counting   =       303.92719269     -164.22566420
  entropy T*S    EENTRO =         0.00000000
  eigenvalues    EBANDS =        24.87444284
  atomic energy  EATOM  =       824.49399690
  Solvation  Ediel_sol  =         0.00000000
  ---------------------------------------------------
  free energy    TOTEN  =       -43.29197385 eV

  energy without entropy =      -43.29197385  energy(sigma->0) =      -43.29197385


--------------------------------------------------------------------------------------------------------




----------------------------------------- Iteration    1(   8)  ---------------------------------------


    POTLOK:  cpu time    0.0130: real time    0.0132
    SETDIJ:  cpu time    0.0030: real time    0.0026
    EDDIAG:  cpu time    0.0240: real time    0.0240
  RMM-DIIS:  cpu time    0.1100: real time    0.1111
    ORTHCH:  cpu time    0.0030: real time    0.0020
 BZINTS: Fermi energy:  5.840000; 32.000000 electrons
         Band energy:  24.420437;  BLOECHL correction:  0.000000
       DOS:  cpu time    0.0020: real time    0.0022
    CHARGE:  cpu time    0.0130: real time    0.0136
    MIXING:  cpu time    0.0020: real time    0.0006
    --------------------------------------------
      LOOP:  cpu time    0.1700: real time    0.1724

 eigenvalue-minimisations  :   460
 total energy-change (2. order) :-0.5304436E-02  (-0.1806767E-02)
 number of electron      32.0000058 magnetization 
 augmentation part       -1.8300449 magnetization 

 Broyden mixing:
  rms(total) = 0.44382E-02    rms(broyden)= 0.44381E-02
  rms(prec ) = 0.86107E-02
  weight for this iteration     100.00

 eigenvalues of (default mixing * dielectric matrix)
  average eigenvalue GAMMA=   2.1425
  1.2629  2.6927  2.4718

 Free energy of the ion-electron system (eV)
  ---------------------------------------------------
  alpha Z        PSCENC =        13.44906198
  Ewald energy   TEWEN  =      -914.08410953
  -Hartree energ DENC   =       -59.56408349
  -exchange      EXHF   =         0.00000000
  -V(xc)+E(xc)   XCENC  =       -71.84591666
  PAW double counting   =       299.70919047     -159.87585497
  entropy T*S    EENTRO =         0.00000000
  eigenvalues    EBANDS =        24.42043701
  atomic energy  EATOM  =       824.49399690
  Solvation  Ediel_sol  =         0.00000000
  ---------------------------------------------------
  free energy    TOTEN  =       -43.29727829 eV

  energy without entropy =      -43.29727829  energy(sigma->0) =      -43.29727829


--------------------------------------------------------------------------------------------------------




----------------------------------------- Iteration    1(   9)  ---------------------------------------


    POTLOK:  cpu time    0.0130: real time    0.0132
    SETDIJ:  cpu time    0.0020: real time    0.0026
    EDDIAG:  cpu time    0.0240: real time    0.0239
  RMM-DIIS:  cpu time    0.1170: real time    0.1170
    ORTHCH:  cpu time    0.0020: real time    0.0019
 BZINTS: Fermi energy:  5.840000; 32.000000 electrons
         Band energy:  24.479837;  BLOECHL correction:  0.000000
       DOS:  cpu time    0.0020: real time    0.0021
    CHARGE:  cpu time    0.0130: real time    0.0133
    MIXING:  cpu time    0.0010: real time    0.0005
    --------------------------------------------
      LOOP:  cpu time    0.1740: real time    0.1792

 eigenvalue-minimisations  :   487
 total energy-change (2. order) :-0.3926992E-03  (-0.1293680E-03)
 number of electron      32.0000058 magnetization 
 augmentation part       -1.8305452 magnetization 

 Broyden mixing:
  rms(total) = 0.21767E-02    rms(broyden)= 0.21767E-02
  rms(prec ) = 0.37061E-02
  weight for this iteration     100.00

 eigenvalues of (default mixing * dielectric matrix)
  average eigenvalue GAMMA=   2.4092
  1.0010  3.5520  2.5642  2.5195

 Free energy of the ion-electron system (eV)
  ---------------------------------------------------
  alpha Z        PSCENC =        13.44906198
  Ewald energy   TEWEN  =      -914.08410953
  -Hartree energ DENC   =       -59.64417298
  -exchange      EXHF   =         0.00000000
  -V(xc)+E(xc)   XCENC  =       -71.82778266
  PAW double counting   =       299.60968314     -159.77418453
  entropy T*S    EENTRO =         0.00000000
  eigenvalues    EBANDS =        24.47983669
  atomic energy  EATOM  =       824.49399690
  Solvation  Ediel_sol  =         0.00000000
  ---------------------------------------------------
  free energy    TOTEN  =       -43.29767099 eV

  energy without entropy =      -43.29767099  energy(sigma->0) =      -43.29767099


--------------------------------------------------------------------------------------------------------




----------------------------------------- Iteration    1(  10)  ---------------------------------------


    POTLOK:  cpu time    0.0130: real time    0.0131
    SETDIJ:  cpu time    0.0020: real time    0.0026
    EDDIAG:  cpu time    0.0240: real time    0.0236
  RMM-DIIS:  cpu time    0.1120: real time    0.1118
    ORTHCH:  cpu time    0.0020: real time    0.0019
 BZINTS: Fermi energy:  5.840000; 32.000000 electrons
         Band energy:  24.544386;  BLOECHL correction:  0.000000
       DOS:  cpu time    0.0020: real time    0.0020
    CHARGE:  cpu time    0.0130: real time    0.0132
    MIXING:  cpu time    0.0010: real time    0.0005
    --------------------------------------------
      LOOP:  cpu time    0.1700: real time    0.1737

 eigenvalue-minimisations  :   466
 total energy-change (2. order) :-0.7338970E-04  (-0.2392168E-04)
 number of electron      32.0000058 magnetization 
 augmentation part       -1.8303109 magnetization 

 Broyden mixing:
  rms(total) = 0.65973E-03    rms(broyden)= 0.65966E-03
  rms(prec ) = 0.11726E-02
  weight for this iteration     100.00

 eigenvalues of (default mixing * dielectric matrix)
  average eigenvalue GAMMA=   2.0332
  3.0718  2.5626  2.3390  0.9733  1.2196

 Free energy of the ion-electron system (eV)
  ---------------------------------------------------
  alpha Z        PSCENC =        13.44906198
  Ewald energy   TEWEN  =      -914.08410953
  -Hartree energ DENC   =       -59.69659542
  -exchange      EXHF   =         0.00000000
  -V(xc)+E(xc)   XCENC  =       -71.82386615
  PAW double counting   =       299.96381149     -160.14443001
  entropy T*S    EENTRO =         0.00000000
  eigenvalues    EBANDS =        24.54438637
  atomic energy  EATOM  =       824.49399690
  Solvation  Ediel_sol  =         0.00000000
  ---------------------------------------------------
  free energy    TOTEN  =       -43.29774438 eV

  energy without entropy =      -43.29774438  energy(sigma->0) =      -43.29774438


--------------------------------------------------------------------------------------------------------




----------------------------------------- Iteration    1(  11)  ---------------------------------------


    POTLOK:  cpu time    0.0130: real time    0.0131
    SETDIJ:  cpu time    0.0030: real time    0.0026
    EDDIAG:  cpu time    0.0230: real time    0.0236
  RMM-DIIS:  cpu time    0.1170: real time    0.1161
    ORTHCH:  cpu time    0.0010: real time    0.0019
 BZINTS: Fermi energy:  5.840000; 32.000000 electrons
         Band energy:  24.519505;  BLOECHL correction:  0.000000
       DOS:  cpu time    0.0020: real time    0.0020
    CHARGE:  cpu time    0.0140: real time    0.0133
    MIXING:  cpu time    0.0000: real time    0.0006
    --------------------------------------------
      LOOP:  cpu time    0.1730: real time    0.1767

 eigenvalue-minimisations  :   485
 total energy-change (2. order) : 0.8362046E-05  (-0.1679341E-05)
 number of electron      32.0000058 magnetization 
 augmentation part       -1.8304505 magnetization 

 Broyden mixing:
  rms(total) = 0.16884E-03    rms(broyden)= 0.16882E-03
  rms(prec ) = 0.26160E-03
  weight for this iteration     100.00

 eigenvalues of (default mixing * dielectric matrix)
  average eigenvalue GAMMA=   1.9994
  3.3001  2.7032  2.1457  1.9944  0.9266  0.9266

 Free energy of the ion-electron system (eV)
  ---------------------------------------------------
  alpha Z        PSCENC =        13.44906198
  Ewald energy   TEWEN  =      -914.08410953
  -Hartree energ DENC   =       -59.67587314
  -exchange      EXHF   =         0.00000000
  -V(xc)+E(xc)   XCENC  =       -71.82578843
  PAW double counting   =       299.81644712     -159.99097587
  entropy T*S    EENTRO =         0.00000000
  eigenvalues    EBANDS =        24.51950495
  atomic energy  EATOM  =       824.49399690
  Solvation  Ediel_sol  =         0.00000000
  ---------------------------------------------------
  free energy    TOTEN  =       -43.29773601 eV

  energy without entropy =      -43.29773601  energy(sigma->0) =      -43.29773601


--------------------------------------------------------------------------------------------------------




----------------------------------------- Iteration    1(  12)  ---------------------------------------


    POTLOK:  cpu time    0.0120: real time    0.0131
    SETDIJ:  cpu time    0.0030: real time    0.0026
    EDDIAG:  cpu time    0.0230: real time    0.0236
  RMM-DIIS:  cpu time    0.0800: real time    0.0800
    ORTHCH:  cpu time    0.0030: real time    0.0019
 BZINTS: Fermi energy:  5.840000; 32.000000 electrons
         Band energy:  24.517341;  BLOECHL correction:  0.000000
       DOS:  cpu time    0.0010: real time    0.0020
    --------------------------------------------
      LOOP:  cpu time    0.1230: real time    0.1269

 eigenvalue-minimisations  :   320
 total energy-change (2. order) : 0.3128785E-06  (-0.9692884E-07)
 number of electron      32.0000058 magnetization 
 augmentation part       -1.8304505 magnetization 

 Free energy of the ion-electron system (eV)
  ---------------------------------------------------
  alpha Z        PSCENC =        13.44906198
  Ewald energy   TEWEN  =      -914.08410953
  -Hartree energ DENC   =       -59.67363008
  -exchange      EXHF   =         0.00000000
  -V(xc)+E(xc)   XCENC  =       -71.82632277
  PAW double counting   =       299.80192655     -159.97599996
  entropy T*S    EENTRO =         0.00000000
  eigenvalues    EBANDS =        24.51734121
  atomic energy  EATOM  =       824.49399690
  Solvation  Ediel_sol  =         0.00000000
  ---------------------------------------------------
  free energy    TOTEN  =       -43.29773570 eV

  energy without entropy =      -43.29773570  energy(sigma->0) =      -43.29773570


--------------------------------------------------------------------------------------------------------




 average (electrostatic) potential at core
  the test charge radii are     0.9892
  (the norm of the test charge is              1.0000)
       1 -83.2531       2 -83.2531       3 -83.2531       4 -83.2531       5 -83.2531
       6 -83.2531       7 -83.2531       8 -83.2531
 
 
 
 E-fermi :   5.8400     XC(G=0):  -9.4090     alpha+bet :-11.9779


 k-point     1 :       0.0000    0.0000    0.0000
  band No.  band energies     occupation 
      1      -6.1322      2.00000
      2      -1.9877      2.00000
      3      -1.9877      2.00000
      4      -1.9877      2.00000
      5      -1.9877      2.00000
      6      -1.9877      2.00000
      7      -1.9877      2.00000
      8       2.9776      2.00000
      9       2.9776      2.00000
     10       2.9776      2.00000
     11       2.9776      2.00000
     12       2.9776      2.00000
     13       2.9776      2.00000
     14       5.8360      2.00000
     15       5.8360      2.00000
     16       5.8360      2.00000
     17       6.5531      0.00000
     18       6.5531      0.00000
     19       6.5531      0.00000
     20       6.5531      0.00000
     21       6.5531      0.00000

 k-point     2 :       0.2000    0.0000    0.0000
  band No.  band energies     occupation 
      1      -5.9573      2.00000
      2      -3.4197      2.00000
      3      -1.9347      2.00000
      4      -1.9347      2.00000
      5      -1.9347      2.00000
      6      -1.9347      2.00000
      7      -0.3485      2.00000
      8       2.5688      2.00000
      9       2.5688      2.00000
     10       2.5688      2.00000
     11       2.5688      2.00000
     12       3.1356      2.00000
     13       3.1356      2.00000
     14       4.8966      2.00000
     15       5.2590      2.00000
     16       5.2590      2.00000
     17       6.4228      0.00000
     18       7.1561      0.00000
     19       7.4066      0.00000
     20       7.4066      0.00000
     21       7.4066      0.00000

 k-point     3 :       0.4000    0.0000    0.0000
  band No.  band energies     occupation 
      1      -5.4368      2.00000
      2      -4.5829      2.00000
      3      -1.8413      2.00000
      4      -1.8413      2.00000
      5      -1.8413      2.00000
      6      -1.8413      2.00000
      7       1.4153      2.00000
      8       2.0555      2.00000
      9       2.0555      2.00000
     10       2.0555      2.00000
     11       2.0555      2.00000
     12       3.2086      2.00000
     13       3.6020      2.00000
     14       3.6020      2.00000
     15       4.3440      2.00000
     16       4.3440      2.00000
     17       6.7020      0.00000
     18       7.3008      0.00000
     19       8.2632      0.00000
     20       9.2771      0.00000
     21       9.2771      0.00000

 k-point     4 :       0.2000    0.2000    0.0000
  band No.  band energies     occupation 
      1      -5.7847      2.00000
      2      -3.3014      2.00000
      3      -3.3014      2.00000
      4      -2.2149      2.00000
      5      -1.6097      2.00000
      6      -0.4340      2.00000
      7      -0.4340      2.00000
      8       1.7664      2.00000
      9       2.6118      2.00000
     10       2.6118      2.00000
     11       2.9383      2.00000
     12       2.9383      2.00000
     13       3.2545      2.00000
     14       3.8016      2.00000
     15       4.6727      2.00000
     16       5.6578      2.00000
     17       6.8733      0.00000
     18       7.3272      0.00000
     19       7.3272      0.00000
     20       7.9198      0.00000
     21       7.9198      0.00000

 k-point     5 :       0.4000    0.2000    0.0000
  band No.  band energies     occupation 
      1      -5.2715      2.00000
      2      -4.4334      2.00000
      3      -2.9809      2.00000
      4      -2.5691      2.00000
      5      -1.1825      2.00000
      6      -0.7322      2.00000
      7       1.0586      2.00000
      8       1.4936      2.00000
      9       1.8512      2.00000
     10       2.4575      2.00000
     11       2.8387      2.00000
     12       3.0233      2.00000
     13       3.1175      2.00000
     14       3.7459      2.00000
     15       3.7512      2.00000
     16       4.8615      2.00000
     17       7.6177      0.00000
     18       8.0077      0.00000
     19       8.1884      0.00000
     20       8.9087      0.00000
     21       9.2423      0.00000

 k-point     6 :       0.4000    0.4000    0.0000
  band No.  band energies     occupation 
      1      -4.7835      2.00000
      2      -4.0000      2.00000
      3      -4.0000      2.00000
      4      -3.3391      2.00000
      5      -0.4843      2.00000
      6       0.3024      2.00000
      7       0.3024      2.00000
      8       1.3553      2.00000
      9       1.5656      2.00000
     10       2.1458      2.00000
     11       2.1458      2.00000
     12       2.8305      2.00000
     13       4.0148      2.00000
     14       4.0417      2.00000
     15       4.0417      2.00000
     16       4.9860      2.00000
     17       7.7532      0.00000
     18       8.7356      0.00000
     19       9.0260      0.00000
     20       9.0267      0.00000
     21       9.5044      0.00000

 k-point     7 :       0.2000    0.2000    0.2000
  band No.  band energies     occupation 
      1      -5.6148      2.00000
      2      -3.2196      2.00000
      3      -3.2196      2.00000
      4      -3.2196      2.00000
      5      -0.5980      2.00000
      6      -0.5980      2.00000
      7      -0.5980      2.00000
      8       2.1455      2.00000
      9       2.1455      2.00000
     10       2.1455      2.00000
     11       2.8230      2.00000
     12       3.4026      2.00000
     13       3.4026      2.00000
     14       3.4026      2.00000
     15       5.2542      2.00000
     16       5.2542      2.00000
     17       7.0728      0.00000
     18       7.0728      0.00000
     19       7.0728      0.00000
     20       8.0580      0.00000
     21       9.2069      0.00000

 k-point     8 :       0.4000    0.2000    0.2000
  band No.  band energies     occupation 
      1      -5.1114      2.00000
      2      -4.2958      2.00000
      3      -3.0630      2.00000
      4      -3.0630      2.00000
      5      -0.9073      2.00000
      6      -0.9073      2.00000
      7       0.5218      2.00000
      8       1.6187      2.00000
      9       1.9959      2.00000
     10       1.9959      2.00000
     11       3.2070      2.00000
     12       3.3608      2.00000
     13       3.3608      2.00000
     14       3.8349      2.00000
     15       4.5012      2.00000
     16       4.5586      2.00000
     17       7.6173      0.00000
     18       8.1854      0.00000
     19       8.1854      0.00000
     20       8.2190      0.00000
     21       9.2308      0.00000

 k-point     9 :       0.4000    0.4000    0.2000
  band No.  band energies     occupation 
      1      -4.6430      2.00000
      2      -3.9133      2.00000
      3      -3.9133      2.00000
      4      -3.4119      2.00000
      5      -0.8722      2.00000
      6      -0.3167      2.00000
      7      -0.3167      2.00000
      8       0.5381      2.00000
      9       2.3977      2.00000
     10       2.9303      2.00000
     11       2.9303      2.00000
     12       3.7867      2.00000
     13       4.1167      2.00000
     14       4.1344      2.00000
     15       4.1344      2.00000
     16       4.9217      2.00000
     17       7.9006      0.00000
     18       8.2591      0.00000
     19       8.5983      0.00000
     20       8.5984      0.00000
     21       9.1303      0.00000

 k-point    10 :       0.4000    0.4000    0.4000
  band No.  band energies     occupation 
      1      -4.2527      2.00000
      2      -3.7468      2.00000
      3      -3.7468      2.00000
      4      -3.7468      2.00000
      5      -0.9939      2.00000
      6      -0.9939      2.00000
      7      -0.9939      2.00000
      8      -0.4419      2.00000
      9       3.8547      2.00000
     10       3.8547      2.00000
     11       3.8547      2.00000
     12       4.3857      2.00000
     13       4.3857      2.00000
     14       4.3857      2.00000
     15       4.7049      2.00000
     16       4.7049      2.00000
     17       7.4599      0.00000
     18       7.9903      0.00000
     19       7.9903      0.00000
     20       7.9903      0.00000
     21       9.1610      0.00000


--------------------------------------------------------------------------------------------------------


 soft charge-density along one line, spin component           1
         0         1         2         3         4         5         6         7         8         9
 total charge-density along one line
 
 pseudopotential strength for first ion, spin component:           1
 18.416  -0.001  -0.000   0.000  -0.000   0.000  -0.000   0.000
 -0.001   0.006   0.000  -0.000   0.000  -0.000   0.000  -0.000
 -0.000   0.000   4.179   0.000  -0.000  -0.005  -0.000   0.000
  0.000  -0.000   0.000   4.179  -0.000  -0.000  -0.005   0.000
 -0.000   0.000  -0.000  -0.000   4.179   0.000   0.000  -0.005
  0.000  -0.000  -0.005  -0.000   0.000   0.005   0.000  -0.000
 -0.000   0.000  -0.000  -0.005   0.000   0.000   0.005  -0.000
  0.000  -0.000   0.000   0.000  -0.005  -0.000  -0.000   0.005
 total augmentation occupancy for first ion, spin component:           1
  1.491  -0.848   0.000  -0.000   0.000  -0.000  -0.000   0.000
 -0.848   0.857   0.000   0.000   0.000   0.000  -0.000  -0.000
 -0.000   0.000   1.028   0.000   0.000  -0.650  -0.000   0.000
 -0.000   0.000   0.000   1.028  -0.000   0.000  -0.650   0.000
  0.000   0.000  -0.000  -0.000   1.028   0.000  -0.000  -0.650
 -0.000  -0.000  -0.650  -0.000   0.000   0.469  -0.000  -0.000
  0.000   0.000   0.000  -0.650   0.000  -0.000   0.469  -0.000
 -0.000   0.000   0.000  -0.000  -0.650  -0.000   0.000   0.469


------------------------ aborting loop because EDIFF is reached ----------------------------------------


 


 total charge     
 
# of ion     s       p       d       tot
----------------------------------------
  1        0.754   0.954   0.000   1.708
  2        0.754   0.954   0.000   1.708
  3        0.754   0.954   0.000   1.708
  4        0.754   0.954   0.000   1.708
  5        0.754   0.954   0.000   1.708
  6        0.754   0.954   0.000   1.708
  7        0.754   0.954   0.000   1.708
  8        0.754   0.954   0.000   1.708
------------------------------------------------
tot        6.033   7.633   0.000  13.666
 
    CHARGE:  cpu time    0.0140: real time    0.0143
    FORLOC:  cpu time    0.0010: real time    0.0013
    FORNL :  cpu time    0.0520: real time    0.0508
    STRESS:  cpu time    0.1550: real time    0.1550
    FORCOR:  cpu time    0.0140: real time    0.0145
    FORHAR:  cpu time    0.0040: real time    0.0030
    MIXING:  cpu time    0.0000: real time    0.0006
    OFIELD:  cpu time    0.0000: real time    0.0000

  FORCE on cell =-STRESS in cart. coord.  units (eV):
  Direction    XX          YY          ZZ          XY          YZ          ZX
  --------------------------------------------------------------------------------------
  Alpha Z    13.44906    13.44906    13.44906
  Ewald    -304.69522  -304.69522  -304.69522    -0.00000    -0.00000    -0.00000
  Hartree    19.89236    19.89236    19.89236    -0.00000    -0.00000    -0.00000
  E(xc)    -101.54073  -101.54073  -101.54073    -0.00000     0.00000     0.00000
  Local    -117.37345  -117.37345  -117.37345    -0.00000    -0.00000     0.00000
  n-local   311.90681   315.02149   308.90391    -3.21440    -1.98389    -1.60683
  augment   -46.48534   -46.48534   -46.48534    -0.00000     0.00000    -0.00000
  Kinetic   219.87326   230.57382   229.38659    -4.15676    -4.22062    -2.67791
  Fock        0.00000     0.00000     0.00000     0.00000     0.00000     0.00000
  -------------------------------------------------------------------------------------
  Total       1.80197     1.80197     1.80197    -0.00000     0.00000    -0.00000
  in kB      18.02257    18.02257    18.02257    -0.00000     0.00000    -0.00000
  external pressure =       18.02 kB  Pullay stress =        0.00 kB


 VOLUME and BASIS-vectors are now :
 -----------------------------------------------------------------------------
  energy-cutoff  :      250.00
  volume of cell :      160.19
      direct lattice vectors                 reciprocal lattice vectors
     5.431010000  0.000000000  0.000000000     0.184127814  0.000000000  0.000000000
     0.000000000  5.431010000  0.000000000     0.000000000  0.184127814  0.000000000
     0.000000000  0.000000000  5.431010000     0.000000000  0.000000000  0.184127814

  length of vectors
     5.431010000  5.431010000  5.431010000     0.184127814  0.184127814  0.184127814


 FORCES acting on ions
    electron-ion (+dipol)            ewald-force                    non-local-force                 convergence-correction
 -----------------------------------------------------------------------------------------------
   0.366E-13 0.206E-14 0.204E-13   -.142E-13 -.107E-13 -.711E-14   -.130E-16 -.299E-16 -.173E-16   0.943E-15 0.352E-14 -.506E-14
   0.373E-13 -.128E-13 0.419E-14   -.142E-13 -.107E-13 -.711E-14   -.373E-16 0.247E-16 -.572E-16   0.166E-14 0.453E-14 -.448E-14
   0.307E-13 -.691E-16 -.354E-12   -.107E-13 -.107E-13 -.711E-14   -.442E-16 -.824E-17 -.642E-16   0.369E-14 0.300E-14 -.378E-14
   0.281E-13 -.151E-12 -.147E-12   -.107E-13 -.107E-13 -.711E-14   -.130E-16 -.434E-18 -.451E-16   0.327E-14 0.313E-14 -.437E-14
   -.432E-13 0.103E-12 0.273E-13   0.148E-13 0.101E-13 0.661E-14   0.121E-16 0.213E-16 0.347E-16   0.130E-14 -.207E-14 -.684E-14
   -.458E-13 0.101E-12 -.959E-14   0.147E-13 0.115E-13 0.748E-14   0.252E-16 0.911E-17 0.677E-16   0.923E-15 -.113E-14 -.679E-14
   -.484E-13 -.100E-12 -.190E-12   0.101E-13 0.984E-14 0.748E-14   0.373E-16 -.997E-17 0.572E-16   0.655E-16 -.326E-14 -.569E-14
   -.458E-13 -.306E-12 -.442E-14   0.101E-13 0.112E-13 0.703E-14   0.121E-16 0.377E-16 0.312E-16   0.513E-15 -.118E-14 -.607E-14
 -----------------------------------------------------------------------------------------------
   -.504E-13 -.364E-12 -.652E-12   -.524E-16 0.105E-16 0.180E-15   -.208E-16 0.442E-16 0.694E-17   0.124E-13 0.654E-14 -.431E-13
 
 
 POSITION                                       TOTAL-FORCE (eV/Angst)
 -----------------------------------------------------------------------------------
      0.00000      0.00000      0.00000        -0.000000      0.000000     -0.000000
      0.00000      2.71550      2.71550         0.000000      0.000000     -0.000000
      2.71550      0.00000      2.71550        -0.000000      0.000000      0.000000
      2.71550      2.71550      0.00000        -0.000000      0.000000     -0.000000
      1.35775      1.35775      1.35775         0.000000     -0.000000      0.000000
      1.35775      4.07326      4.07326         0.000000      0.000000     -0.000000
      4.07326      1.35775      4.07326        -0.000000     -0.000000      0.000000
      4.07326      4.07326      1.35775         0.000000     -0.000000      0.000000
 -----------------------------------------------------------------------------------
    total drift:                               -0.000000     -0.000000     -0.000000


--------------------------------------------------------------------------------------------------------



  FREE ENERGIE OF THE ION-ELECTRON SYSTEM (eV)
  ---------------------------------------------------
  free  energy   TOTEN  =       -43.29773570 eV

  energy  without entropy=      -43.29773570  energy(sigma->0) =      -43.29773570
 


--------------------------------------------------------------------------------------------------------


    POTLOK:  cpu time    0.0160: real time    0.0160


--------------------------------------------------------------------------------------------------------


     LOOP+:  cpu time    2.3846: real time    2.4457
    4ORBIT:  cpu time    0.0000: real time    0.0000
 


 total charge     
 
# of ion     s       p       d       tot
----------------------------------------
  1        0.754   0.954   0.000   1.708
  2        0.754   0.954   0.000   1.708
  3        0.754   0.954   0.000   1.708
  4        0.754   0.954   0.000   1.708
  5        0.754   0.954   0.000   1.708
  6        0.754   0.954   0.000   1.708
  7        0.754   0.954   0.000   1.708
  8        0.754   0.954   0.000   1.708
------------------------------------------------
tot        6.033   7.633   0.000  13.666
 
 BZINTS: Fermi energy:  5.840000; 32.000000 electrons
         Band energy:  24.517341;  BLOECHL correction:  0.000000

 total amount of memory used by VASP on root node    34259. kBytes
========================================================================

   base      :      30000. kBytes
   nonlr-proj:        401. kBytes
   fftplans  :       1068. kBytes
   grid      :       1504. kBytes
   one-center:          6. kBytes
   wavefun   :       1280. kBytes
 
  
  
 General timing and accounting informations for this job:
 ========================================================
  
                  Total CPU time used (sec):        3.384
                            User time (sec):        3.284
                          System time (sec):        0.100
                         Elapsed time (sec):        3.573
  
                   Maximum memory used (kb):       30272.
                   Average memory used (kb):           0.
  
                          Minor page faults:         7558
                          Major page faults:          230
                 Voluntary context switches:         2024
