PROCAR lm decomposed
# of k-points:   10         # of bands:  21         # of ions:   8

 k-point    1 :    0.00000000 0.00000000 0.00000000     weight = 0.00800000

band   1 # energy   -6.13216568 # occ.  2.00000000
 
ion      s     py     pz     px    dxy    dyz    dz2    dxz    dx2    tot
  1  0.054  0.000  0.000  0.000  0.000  0.000  0.000  0.000  0.000  0.054
  2  0.054  0.000  0.000  0.000  0.000  0.000  0.000  0.000  0.000  0.054
  3  0.054  0.000  0.000  0.000  0.000  0.000  0.000  0.000  0.000  0.054
  4  0.054  0.000  0.000  0.000  0.000  0.000  0.000  0.000  0.000  0.054
  5  0.054  0.000  0.000  0.000  0.000  0.000  0.000  0.000  0.000  0.054
  6  0.054  0.000  0.000  0.000  0.000  0.000  0.000  0.000  0.000  0.054
  7  0.054  0.000  0.000  0.000  0.000  0.000  0.000  0.000  0.000  0.054
  8  0.054  0.000  0.000  0.000  0.000  0.000  0.000  0.000  0.000  0.054
tot  0.429  0.000  0.000  0.000  0.000  0.000  0.000  0.000  0.000  0.429
 
band   2 # energy   -1.98771370 # occ.  2.00000000
 
ion      s     py     pz     px    dxy    dyz    dz2    dxz    dx2    tot
  1  0.039  0.003  0.011  0.003  0.000  0.000  0.000  0.000  0.000  0.056
  2  0.018  0.003  0.011  0.003  0.000  0.000  0.000  0.000  0.000  0.035
  3  0.031  0.003  0.011  0.003  0.000  0.000  0.000  0.000  0.000  0.048
  4  0.016  0.003  0.011  0.003  0.000  0.000  0.000  0.000  0.000  0.033
  5  0.136  0.000  0.002  0.004  0.000  0.000  0.000  0.000  0.000  0.142
  6  0.029  0.000  0.002  0.004  0.000  0.000  0.000  0.000  0.000  0.035
  7  0.106  0.000  0.002  0.004  0.000  0.000  0.000  0.000  0.000  0.112
  8  0.013  0.000  0.002  0.004  0.000  0.000  0.000  0.000  0.000  0.020
tot  0.388  0.011  0.052  0.029  0.000  0.000  0.000  0.000  0.000  0.480
 
band   3 # energy   -1.98771370 # occ.  2.00000000
 
ion      s     py     pz     px    dxy    dyz    dz2    dxz    dx2    tot
  1  0.012  0.006  0.002  0.001  0.000  0.000  0.000  0.000  0.000  0.020
  2  0.049  0.006  0.002  0.001  0.000  0.000  0.000  0.000  0.000  0.058
  3  0.100  0.006  0.002  0.001  0.000  0.000  0.000  0.000  0.000  0.109
  4  0.081  0.006  0.002  0.001  0.000  0.000  0.000  0.000  0.000  0.090
  5  0.029  0.010  0.002  0.002  0.000  0.000  0.000  0.000  0.000  0.044
  6  0.031  0.010  0.002  0.002  0.000  0.000  0.000  0.000  0.000  0.045
  7  0.022  0.010  0.002  0.002  0.000  0.000  0.000  0.000  0.000  0.036
  8  0.064  0.010  0.002  0.002  0.000  0.000  0.000  0.000  0.000  0.078
tot  0.388  0.064  0.014  0.014  0.000  0.000  0.000  0.000  0.000  0.480
 
band   4 # energy   -1.98771370 # occ.  2.00000000
 
ion      s     py     pz     px    dxy    dyz    dz2    dxz    dx2    tot
  1  0.023  0.004  0.001  0.005  0.000  0.000  0.000  0.000  0.000  0.033
  2  0.083  0.004  0.001  0.005  0.000  0.000  0.000  0.000  0.000  0.092
  3  0.026  0.004  0.001  0.005  0.000  0.000  0.000  0.000  0.000  0.035
  4  0.092  0.004  0.001  0.005  0.000  0.000  0.000  0.000  0.000  0.101
  5  0.048  0.003  0.008  0.002  0.000  0.000  0.000  0.000  0.000  0.061
  6  0.038  0.003  0.008  0.002  0.000  0.000  0.000  0.000  0.000  0.051
  7  0.008  0.003  0.008  0.002  0.000  0.000  0.000  0.000  0.000  0.021
  8  0.072  0.003  0.008  0.002  0.000  0.000  0.000  0.000  0.000  0.085
tot  0.388  0.031  0.035  0.026  0.000  0.000  0.000  0.000  0.000  0.480
 
band   5 # energy   -1.98771370 # occ.  2.00000000
 
ion      s     py     pz     px    dxy    dyz    dz2    dxz    dx2    tot
  1  0.039  0.006  0.001  0.007  0.000  0.000  0.000  0.000  0.000  0.052
  2  0.007  0.006  0.001  0.007  0.000  0.000  0.000  0.000  0.000  0.020
  3  0.083  0.006  0.001  0.007  0.000  0.000  0.000  0.000  0.000  0.096
  4  0.039  0.006  0.001  0.007  0.000  0.000  0.000  0.000  0.000  0.052
  5  0.007  0.005  0.004  0.002  0.000  0.000  0.000  0.000  0.000  0.017
  6  0.132  0.005  0.004  0.002  0.000  0.000  0.000  0.000  0.000  0.142
  7  0.061  0.005  0.004  0.002  0.000  0.000  0.000  0.000  0.000  0.071
  8  0.020  0.005  0.004  0.002  0.000  0.000  0.000  0.000  0.000  0.030
tot  0.388  0.041  0.018  0.034  0.000  0.000  0.000  0.000  0.000  0.480
 
band   6 # energy   -1.98771370 # occ.  2.00000000
 
ion      s     py     pz     px    dxy    dyz    dz2    dxz    dx2    tot
  1  0.049  0.001  0.008  0.001  0.000  0.000  0.000  0.000  0.000  0.060
  2  0.057  0.001  0.008  0.001  0.000  0.000  0.000  0.000  0.000  0.067
  3  0.046  0.001  0.008  0.001  0.000  0.000  0.000  0.000  0.000  0.056
  4  0.063  0.001  0.008  0.001  0.000  0.000  0.000  0.000  0.000  0.073
  5  0.004  0.000  0.000  0.013  0.000  0.000  0.000  0.000  0.000  0.017
  6  0.030  0.000  0.000  0.013  0.000  0.000  0.000  0.000  0.000  0.043
  7  0.035  0.000  0.000  0.013  0.000  0.000  0.000  0.000  0.000  0.048
  8  0.103  0.000  0.000  0.013  0.000  0.000  0.000  0.000  0.000  0.116
tot  0.388  0.005  0.032  0.055  0.000  0.000  0.000  0.000  0.000  0.480
 
band   7 # energy   -1.98771370 # occ.  2.00000000
 
ion      s     py     pz     px    dxy    dyz    dz2    dxz    dx2    tot
  1  0.130  0.003  0.001  0.006  0.000  0.000  0.000  0.000  0.000  0.141
  2  0.076  0.003  0.001  0.006  0.000  0.000  0.000  0.000  0.000  0.087
  3  0.006  0.003  0.001  0.006  0.000  0.000  0.000  0.000  0.000  0.016
  4  0.001  0.003  0.001  0.006  0.000  0.000  0.000  0.000  0.000  0.011
  5  0.066  0.005  0.007  0.000  0.000  0.000  0.000  0.000  0.000  0.079
  6  0.031  0.005  0.007  0.000  0.000  0.000  0.000  0.000  0.000  0.044
  7  0.059  0.005  0.007  0.000  0.000  0.000  0.000  0.000  0.000  0.072
  8  0.019  0.005  0.007  0.000  0.000  0.000  0.000  0.000  0.000  0.031
tot  0.388  0.033  0.033  0.026  0.000  0.000  0.000  0.000  0.000  0.480
 
band   8 # energy    2.97759240 # occ.  2.00000000
 
ion      s     py     pz     px    dxy    dyz    dz2    dxz    dx2    tot
  1  0.000  0.003  0.002  0.056  0.000  0.000  0.000  0.000  0.000  0.062
  2  0.000  0.012  0.000  0.056  0.000  0.000  0.000  0.000  0.000  0.069
  3  0.000  0.003  0.000  0.026  0.000  0.000  0.000  0.000  0.000  0.029
  4  0.000  0.012  0.002  0.026  0.000  0.000  0.000  0.000  0.000  0.040
  5  0.000  0.003  0.038  0.004  0.000  0.000  0.000  0.000  0.000  0.045
  6  0.000  0.011  0.033  0.004  0.000  0.000  0.000  0.000  0.000  0.048
  7  0.000  0.003  0.033  0.011  0.000  0.000  0.000  0.000  0.000  0.048
  8  0.000  0.011  0.038  0.011  0.000  0.000  0.000  0.000  0.000  0.060
tot  0.000  0.058  0.148  0.194  0.000  0.000  0.000  0.000  0.000  0.400
 
band   9 # energy    2.97759240 # occ.  2.00000000
 
ion      s     py     pz     px    dxy    dyz    dz2    dxz    dx2    tot
  1  0.000  0.008  0.025  0.009  0.000  0.000  0.000  0.000  0.000  0.042
  2  0.000  0.009  0.040  0.009  0.000  0.000  0.000  0.000  0.000  0.059
  3  0.000  0.008  0.040  0.008  0.000  0.000  0.000  0.000  0.000  0.057
  4  0.000  0.009  0.025  0.008  0.000  0.000  0.000  0.000  0.000  0.043
  5  0.000  0.006  0.006  0.039  0.000  0.000  0.000  0.000  0.000  0.051
  6  0.000  0.042  0.005  0.039  0.000  0.000  0.000  0.000  0.000  0.086
  7  0.000  0.006  0.005  0.002  0.000  0.000  0.000  0.000  0.000  0.013
  8  0.000  0.042  0.006  0.002  0.000  0.000  0.000  0.000  0.000  0.050
tot  0.000  0.132  0.152  0.116  0.000  0.000  0.000  0.000  0.000  0.400
 
band  10 # energy    2.97759240 # occ.  2.00000000
 
ion      s     py     pz     px    dxy    dyz    dz2    dxz    dx2    tot
  1  0.000  0.016  0.004  0.017  0.000  0.000  0.000  0.000  0.000  0.038
  2  0.000  0.012  0.019  0.017  0.000  0.000  0.000  0.000  0.000  0.049
  3  0.000  0.016  0.019  0.031  0.000  0.000  0.000  0.000  0.000  0.066
  4  0.000  0.012  0.004  0.031  0.000  0.000  0.000  0.000  0.000  0.047
  5  0.000  0.050  0.006  0.007  0.000  0.000  0.000  0.000  0.000  0.063
  6  0.000  0.001  0.012  0.007  0.000  0.000  0.000  0.000  0.000  0.020
  7  0.000  0.050  0.012  0.024  0.000  0.000  0.000  0.000  0.000  0.087
  8  0.000  0.001  0.006  0.024  0.000  0.000  0.000  0.000  0.000  0.031
tot  0.000  0.158  0.084  0.158  0.000  0.000  0.000  0.000  0.000  0.400
 
band  11 # energy    2.97759240 # occ.  2.00000000
 
ion      s     py     pz     px    dxy    dyz    dz2    dxz    dx2    tot
  1  0.000  0.013  0.030  0.007  0.000  0.000  0.000  0.000  0.000  0.050
  2  0.000  0.038  0.008  0.007  0.000  0.000  0.000  0.000  0.000  0.054
  3  0.000  0.013  0.008  0.004  0.000  0.000  0.000  0.000  0.000  0.025
  4  0.000  0.038  0.030  0.004  0.000  0.000  0.000  0.000  0.000  0.072
  5  0.000  0.014  0.020  0.013  0.000  0.000  0.000  0.000  0.000  0.047
  6  0.000  0.000  0.029  0.013  0.000  0.000  0.000  0.000  0.000  0.042
  7  0.000  0.014  0.029  0.024  0.000  0.000  0.000  0.000  0.000  0.067
  8  0.000  0.000  0.020  0.024  0.000  0.000  0.000  0.000  0.000  0.045
tot  0.000  0.131  0.173  0.096  0.000  0.000  0.000  0.000  0.000  0.400
 
band  12 # energy    2.97759240 # occ.  2.00000000
 
ion      s     py     pz     px    dxy    dyz    dz2    dxz    dx2    tot
  1  0.000  0.052  0.005  0.006  0.000  0.000  0.000  0.000  0.000  0.063
  2  0.000  0.012  0.003  0.006  0.000  0.000  0.000  0.000  0.000  0.021
  3  0.000  0.052  0.003  0.022  0.000  0.000  0.000  0.000  0.000  0.077
  4  0.000  0.012  0.005  0.022  0.000  0.000  0.000  0.000  0.000  0.038
  5  0.000  0.024  0.022  0.014  0.000  0.000  0.000  0.000  0.000  0.060
  6  0.000  0.008  0.005  0.014  0.000  0.000  0.000  0.000  0.000  0.027
  7  0.000  0.024  0.005  0.027  0.000  0.000  0.000  0.000  0.000  0.056
  8  0.000  0.008  0.022  0.027  0.000  0.000  0.000  0.000  0.000  0.056
tot  0.000  0.190  0.069  0.140  0.000  0.000  0.000  0.000  0.000  0.400
 
band  13 # energy    2.97759240 # occ.  2.00000000
 
ion      s     py     pz     px    dxy    dyz    dz2    dxz    dx2    tot
  1  0.000  0.008  0.034  0.003  0.000  0.000  0.000  0.000  0.000  0.045
  2  0.000  0.017  0.028  0.003  0.000  0.000  0.000  0.000  0.000  0.048
  3  0.000  0.008  0.028  0.010  0.000  0.000  0.000  0.000  0.000  0.046
  4  0.000  0.017  0.034  0.010  0.000  0.000  0.000  0.000  0.000  0.060
  5  0.000  0.002  0.008  0.024  0.000  0.000  0.000  0.000  0.000  0.035
  6  0.000  0.038  0.016  0.024  0.000  0.000  0.000  0.000  0.000  0.078
  7  0.000  0.002  0.016  0.011  0.000  0.000  0.000  0.000  0.000  0.029
  8  0.000  0.038  0.008  0.011  0.000  0.000  0.000  0.000  0.000  0.058
tot  0.000  0.131  0.173  0.095  0.000  0.000  0.000  0.000  0.000  0.400
 
band  14 # energy    5.83604881 # occ.  2.00000000
 
ion      s     py     pz     px    dxy    dyz    dz2    dxz    dx2    tot
  1  0.000  0.028  0.004  0.023  0.000  0.000  0.000  0.000  0.000  0.055
  2  0.000  0.028  0.004  0.023  0.000  0.000  0.000  0.000  0.000  0.055
  3  0.000  0.028  0.004  0.023  0.000  0.000  0.000  0.000  0.000  0.055
  4  0.000  0.028  0.004  0.023  0.000  0.000  0.000  0.000  0.000  0.055
  5  0.000  0.028  0.004  0.023  0.000  0.000  0.000  0.000  0.000  0.055
  6  0.000  0.028  0.004  0.023  0.000  0.000  0.000  0.000  0.000  0.055
  7  0.000  0.028  0.004  0.023  0.000  0.000  0.000  0.000  0.000  0.055
  8  0.000  0.028  0.004  0.023  0.000  0.000  0.000  0.000  0.000  0.055
tot  0.000  0.227  0.031  0.180  0.000  0.000  0.000  0.000  0.000  0.439
 
band  15 # energy    5.83604882 # occ.  2.00000000
 
ion      s     py     pz     px    dxy    dyz    dz2    dxz    dx2    tot
  1  0.000  0.025  0.003  0.027  0.000  0.000  0.000  0.000  0.000  0.055
  2  0.000  0.025  0.003  0.027  0.000  0.000  0.000  0.000  0.000  0.055
  3  0.000  0.025  0.003  0.027  0.000  0.000  0.000  0.000  0.000  0.055
  4  0.000  0.025  0.003  0.027  0.000  0.000  0.000  0.000  0.000  0.055
  5  0.000  0.025  0.003  0.027  0.000  0.000  0.000  0.000  0.000  0.055
  6  0.000  0.025  0.003  0.027  0.000  0.000  0.000  0.000  0.000  0.055
  7  0.000  0.025  0.003  0.027  0.000  0.000  0.000  0.000  0.000  0.055
  8  0.000  0.025  0.003  0.027  0.000  0.000  0.000  0.000  0.000  0.055
tot  0.000  0.202  0.024  0.213  0.000  0.000  0.000  0.000  0.000  0.439
 
band  16 # energy    5.83604895 # occ.  2.00000000
 
ion      s     py     pz     px    dxy    dyz    dz2    dxz    dx2    tot
  1  0.000  0.001  0.048  0.006  0.000  0.000  0.000  0.000  0.000  0.055
  2  0.000  0.001  0.048  0.006  0.000  0.000  0.000  0.000  0.000  0.055
  3  0.000  0.001  0.048  0.006  0.000  0.000  0.000  0.000  0.000  0.055
  4  0.000  0.001  0.048  0.006  0.000  0.000  0.000  0.000  0.000  0.055
  5  0.000  0.001  0.048  0.006  0.000  0.000  0.000  0.000  0.000  0.055
  6  0.000  0.001  0.048  0.006  0.000  0.000  0.000  0.000  0.000  0.055
  7  0.000  0.001  0.048  0.006  0.000  0.000  0.000  0.000  0.000  0.055
  8  0.000  0.001  0.048  0.006  0.000  0.000  0.000  0.000  0.000  0.055
tot  0.000  0.009  0.384  0.045  0.000  0.000  0.000  0.000  0.000  0.439
 
band  17 # energy    6.55313066 # occ.  0.00000000
 
ion      s     py     pz     px    dxy    dyz    dz2    dxz    dx2    tot
  1  0.000  0.002  0.005  0.000  0.000  0.000  0.000  0.000  0.000  0.007
  2  0.039  0.002  0.005  0.000  0.000  0.000  0.000  0.000  0.000  0.046
  3  0.019  0.002  0.005  0.000  0.000  0.000  0.000  0.000  0.000  0.026
  4  0.004  0.002  0.005  0.000  0.000  0.000  0.000  0.000  0.000  0.011
  5  0.008  0.003  0.001  0.007  0.000  0.000  0.000  0.000  0.000  0.019
  6  0.013  0.003  0.001  0.007  0.000  0.000  0.000  0.000  0.000  0.023
  7  0.011  0.003  0.001  0.007  0.000  0.000  0.000  0.000  0.000  0.022
  8  0.010  0.003  0.001  0.007  0.000  0.000  0.000  0.000  0.000  0.021
tot  0.104  0.020  0.024  0.027  0.000  0.000  0.000  0.000  0.000  0.175
 
band  18 # energy    6.55313066 # occ.  0.00000000
 
ion      s     py     pz     px    dxy    dyz    dz2    dxz    dx2    tot
  1  0.014  0.000  0.006  0.001  0.000  0.000  0.000  0.000  0.000  0.021
  2  0.002  0.000  0.006  0.001  0.000  0.000  0.000  0.000  0.000  0.008
  3  0.045  0.000  0.006  0.001  0.000  0.000  0.000  0.000  0.000  0.052
  4  0.004  0.000  0.006  0.001  0.000  0.000  0.000  0.000  0.000  0.011
  5  0.015  0.002  0.005  0.004  0.000  0.000  0.000  0.000  0.000  0.026
  6  0.004  0.002  0.005  0.004  0.000  0.000  0.000  0.000  0.000  0.015
  7  0.016  0.002  0.005  0.004  0.000  0.000  0.000  0.000  0.000  0.027
  8  0.004  0.002  0.005  0.004  0.000  0.000  0.000  0.000  0.000  0.015
tot  0.104  0.007  0.043  0.021  0.000  0.000  0.000  0.000  0.000  0.175
 
band  19 # energy    6.55313066 # occ.  0.00000000
 
ion      s     py     pz     px    dxy    dyz    dz2    dxz    dx2    tot
  1  0.018  0.003  0.002  0.004  0.000  0.000  0.000  0.000  0.000  0.027
  2  0.002  0.003  0.002  0.004  0.000  0.000  0.000  0.000  0.000  0.011
  3  0.001  0.003  0.002  0.004  0.000  0.000  0.000  0.000  0.000  0.010
  4  0.030  0.003  0.002  0.004  0.000  0.000  0.000  0.000  0.000  0.039
  5  0.001  0.005  0.001  0.004  0.000  0.000  0.000  0.000  0.000  0.010
  6  0.036  0.005  0.001  0.004  0.000  0.000  0.000  0.000  0.000  0.045
  7  0.009  0.005  0.001  0.004  0.000  0.000  0.000  0.000  0.000  0.017
  8  0.007  0.005  0.001  0.004  0.000  0.000  0.000  0.000  0.000  0.016
tot  0.104  0.028  0.011  0.032  0.000  0.000  0.000  0.000  0.000  0.175
 
band  20 # energy    6.55313067 # occ.  0.00000000
 
ion      s     py     pz     px    dxy    dyz    dz2    dxz    dx2    tot
  1  0.005  0.005  0.001  0.005  0.000  0.000  0.000  0.000  0.000  0.016
  2  0.002  0.005  0.001  0.005  0.000  0.000  0.000  0.000  0.000  0.013
  3  0.008  0.005  0.001  0.005  0.000  0.000  0.000  0.000  0.000  0.020
  4  0.024  0.005  0.001  0.005  0.000  0.000  0.000  0.000  0.000  0.035
  5  0.027  0.004  0.002  0.001  0.000  0.000  0.000  0.000  0.000  0.033
  6  0.016  0.004  0.002  0.001  0.000  0.000  0.000  0.000  0.000  0.022
  7  0.018  0.004  0.002  0.001  0.000  0.000  0.000  0.000  0.000  0.024
  8  0.006  0.004  0.002  0.001  0.000  0.000  0.000  0.000  0.000  0.013
tot  0.104  0.036  0.012  0.024  0.000  0.000  0.000  0.000  0.000  0.175
 
band  21 # energy    6.55313067 # occ.  0.00000000
 
ion      s     py     pz     px    dxy    dyz    dz2    dxz    dx2    tot
  1  0.007  0.006  0.003  0.003  0.000  0.000  0.000  0.000  0.000  0.018
  2  0.012  0.006  0.003  0.003  0.000  0.000  0.000  0.000  0.000  0.024
  3  0.003  0.006  0.003  0.003  0.000  0.000  0.000  0.000  0.000  0.015
  4  0.016  0.006  0.003  0.003  0.000  0.000  0.000  0.000  0.000  0.027
  5  0.010  0.000  0.004  0.002  0.000  0.000  0.000  0.000  0.000  0.016
  6  0.002  0.000  0.004  0.002  0.000  0.000  0.000  0.000  0.000  0.008
  7  0.009  0.000  0.004  0.002  0.000  0.000  0.000  0.000  0.000  0.015
  8  0.046  0.000  0.004  0.002  0.000  0.000  0.000  0.000  0.000  0.053
tot  0.104  0.025  0.027  0.019  0.000  0.000  0.000  0.000  0.000  0.175
 

 k-point    2 :    0.20000000 0.00000000 0.00000000     weight = 0.04800000

band   1 # energy   -5.95725289 # occ.  2.00000000
 
ion      s     py     pz     px    dxy    dyz    dz2    dxz    dx2    tot
  1  0.053  0.000  0.000  0.000  0.000  0.000  0.000  0.000  0.000  0.054
  2  0.053  0.000  0.000  0.000  0.000  0.000  0.000  0.000  0.000  0.054
  3  0.053  0.000  0.000  0.000  0.000  0.000  0.000  0.000  0.000  0.054
  4  0.053  0.000  0.000  0.000  0.000  0.000  0.000  0.000  0.000  0.054
  5  0.053  0.000  0.000  0.000  0.000  0.000  0.000  0.000  0.000  0.054
  6  0.053  0.000  0.000  0.000  0.000  0.000  0.000  0.000  0.000  0.054
  7  0.053  0.000  0.000  0.000  0.000  0.000  0.000  0.000  0.000  0.054
  8  0.053  0.000  0.000  0.000  0.000  0.000  0.000  0.000  0.000  0.054
tot  0.428  0.000  0.000  0.004  0.000  0.000  0.000  0.000  0.000  0.431
 
band   2 # energy   -3.41968842 # occ.  2.00000000
 
ion      s     py     pz     px    dxy    dyz    dz2    dxz    dx2    tot
  1  0.050  0.000  0.000  0.008  0.000  0.000  0.000  0.000  0.000  0.058
  2  0.050  0.000  0.000  0.008  0.000  0.000  0.000  0.000  0.000  0.058
  3  0.050  0.000  0.000  0.008  0.000  0.000  0.000  0.000  0.000  0.058
  4  0.050  0.000  0.000  0.008  0.000  0.000  0.000  0.000  0.000  0.058
  5  0.050  0.000  0.000  0.008  0.000  0.000  0.000  0.000  0.000  0.058
  6  0.050  0.000  0.000  0.008  0.000  0.000  0.000  0.000  0.000  0.058
  7  0.050  0.000  0.000  0.008  0.000  0.000  0.000  0.000  0.000  0.058
  8  0.050  0.000  0.000  0.008  0.000  0.000  0.000  0.000  0.000  0.058
tot  0.402  0.000  0.000  0.060  0.000  0.000  0.000  0.000  0.000  0.463
 
band   3 # energy   -1.93472673 # occ.  2.00000000
 
ion      s     py     pz     px    dxy    dyz    dz2    dxz    dx2    tot
  1  0.116  0.001  0.003  0.000  0.000  0.000  0.000  0.000  0.000  0.120
  2  0.116  0.001  0.003  0.000  0.000  0.000  0.000  0.000  0.000  0.120
  3  0.043  0.000  0.004  0.000  0.000  0.000  0.000  0.000  0.000  0.048
  4  0.043  0.000  0.004  0.000  0.000  0.000  0.000  0.000  0.000  0.048
  5  0.022  0.002  0.016  0.000  0.000  0.000  0.000  0.000  0.000  0.040
  6  0.022  0.002  0.016  0.000  0.000  0.000  0.000  0.000  0.000  0.040
  7  0.016  0.002  0.016  0.000  0.000  0.000  0.000  0.000  0.000  0.034
  8  0.016  0.002  0.016  0.000  0.000  0.000  0.000  0.000  0.000  0.034
tot  0.395  0.011  0.080  0.000  0.000  0.000  0.000  0.000  0.000  0.485
 
band   4 # energy   -1.93472673 # occ.  2.00000000
 
ion      s     py     pz     px    dxy    dyz    dz2    dxz    dx2    tot
  1  0.007  0.000  0.014  0.000  0.000  0.000  0.000  0.000  0.000  0.021
  2  0.007  0.000  0.014  0.000  0.000  0.000  0.000  0.000  0.000  0.021
  3  0.066  0.005  0.009  0.000  0.000  0.000  0.000  0.000  0.000  0.080
  4  0.066  0.005  0.009  0.000  0.000  0.000  0.000  0.000  0.000  0.080
  5  0.072  0.003  0.005  0.000  0.000  0.000  0.000  0.000  0.000  0.081
  6  0.072  0.003  0.005  0.000  0.000  0.000  0.000  0.000  0.000  0.081
  7  0.052  0.006  0.003  0.000  0.000  0.000  0.000  0.000  0.000  0.060
  8  0.052  0.006  0.003  0.000  0.000  0.000  0.000  0.000  0.000  0.060
tot  0.395  0.028  0.062  0.000  0.000  0.000  0.000  0.000  0.000  0.485
 
band   5 # energy   -1.93472673 # occ.  2.00000000
 
ion      s     py     pz     px    dxy    dyz    dz2    dxz    dx2    tot
  1  0.064  0.007  0.003  0.000  0.000  0.000  0.000  0.000  0.000  0.074
  2  0.064  0.007  0.003  0.000  0.000  0.000  0.000  0.000  0.000  0.074
  3  0.047  0.002  0.008  0.000  0.000  0.000  0.000  0.000  0.000  0.057
  4  0.047  0.002  0.008  0.000  0.000  0.000  0.000  0.000  0.000  0.057
  5  0.042  0.013  0.000  0.000  0.000  0.000  0.000  0.000  0.000  0.054
  6  0.042  0.013  0.000  0.000  0.000  0.000  0.000  0.000  0.000  0.054
  7  0.045  0.010  0.003  0.000  0.000  0.000  0.000  0.000  0.000  0.058
  8  0.045  0.010  0.003  0.000  0.000  0.000  0.000  0.000  0.000  0.058
tot  0.395  0.061  0.029  0.000  0.000  0.000  0.000  0.000  0.000  0.485
 
band   6 # energy   -1.93472673 # occ.  2.00000000
 
ion      s     py     pz     px    dxy    dyz    dz2    dxz    dx2    tot
  1  0.010  0.015  0.002  0.000  0.000  0.000  0.000  0.000  0.000  0.027
  2  0.010  0.015  0.002  0.000  0.000  0.000  0.000  0.000  0.000  0.027
  3  0.041  0.016  0.001  0.000  0.000  0.000  0.000  0.000  0.000  0.058
  4  0.041  0.016  0.001  0.000  0.000  0.000  0.000  0.000  0.000  0.058
  5  0.061  0.004  0.001  0.000  0.000  0.000  0.000  0.000  0.000  0.067
  6  0.061  0.004  0.001  0.000  0.000  0.000  0.000  0.000  0.000  0.067
  7  0.085  0.005  0.001  0.000  0.000  0.000  0.000  0.000  0.000  0.091
  8  0.085  0.005  0.001  0.000  0.000  0.000  0.000  0.000  0.000  0.091
tot  0.395  0.081  0.009  0.000  0.000  0.000  0.000  0.000  0.000  0.485
 
band   7 # energy   -0.34854192 # occ.  2.00000000
 
ion      s     py     pz     px    dxy    dyz    dz2    dxz    dx2    tot
  1  0.046  0.000  0.000  0.016  0.000  0.000  0.000  0.000  0.000  0.062
  2  0.046  0.000  0.000  0.016  0.000  0.000  0.000  0.000  0.000  0.062
  3  0.046  0.000  0.000  0.016  0.000  0.000  0.000  0.000  0.000  0.062
  4  0.046  0.000  0.000  0.016  0.000  0.000  0.000  0.000  0.000  0.062
  5  0.046  0.000  0.000  0.016  0.000  0.000  0.000  0.000  0.000  0.062
  6  0.046  0.000  0.000  0.016  0.000  0.000  0.000  0.000  0.000  0.062
  7  0.046  0.000  0.000  0.016  0.000  0.000  0.000  0.000  0.000  0.062
  8  0.046  0.000  0.000  0.016  0.000  0.000  0.000  0.000  0.000  0.062
tot  0.369  0.000  0.000  0.130  0.000  0.000  0.000  0.000  0.000  0.499
 
band   8 # energy    2.56881037 # occ.  2.00000000
 
ion      s     py     pz     px    dxy    dyz    dz2    dxz    dx2    tot
  1  0.001  0.018  0.003  0.031  0.000  0.000  0.000  0.000  0.000  0.054
  2  0.001  0.018  0.003  0.031  0.000  0.000  0.000  0.000  0.000  0.054
  3  0.000  0.012  0.010  0.015  0.000  0.000  0.000  0.000  0.000  0.037
  4  0.000  0.012  0.010  0.015  0.000  0.000  0.000  0.000  0.000  0.037
  5  0.001  0.001  0.025  0.033  0.000  0.000  0.000  0.000  0.000  0.060
  6  0.001  0.001  0.025  0.033  0.000  0.000  0.000  0.000  0.000  0.060
  7  0.000  0.014  0.012  0.005  0.000  0.000  0.000  0.000  0.000  0.032
  8  0.000  0.014  0.012  0.005  0.000  0.000  0.000  0.000  0.000  0.032
tot  0.005  0.090  0.100  0.169  0.000  0.000  0.000  0.000  0.000  0.365
 
band   9 # energy    2.56881037 # occ.  2.00000000
 
ion      s     py     pz     px    dxy    dyz    dz2    dxz    dx2    tot
  1  0.000  0.020  0.014  0.010  0.000  0.000  0.000  0.000  0.000  0.044
  2  0.000  0.020  0.014  0.010  0.000  0.000  0.000  0.000  0.000  0.044
  3  0.000  0.033  0.001  0.014  0.000  0.000  0.000  0.000  0.000  0.048
  4  0.000  0.033  0.001  0.014  0.000  0.000  0.000  0.000  0.000  0.048
  5  0.001  0.000  0.014  0.019  0.000  0.000  0.000  0.000  0.000  0.033
  6  0.001  0.000  0.014  0.019  0.000  0.000  0.000  0.000  0.000  0.033
  7  0.001  0.004  0.009  0.041  0.000  0.000  0.000  0.000  0.000  0.056
  8  0.001  0.004  0.009  0.041  0.000  0.000  0.000  0.000  0.000  0.056
tot  0.005  0.115  0.076  0.169  0.000  0.000  0.000  0.000  0.000  0.365
 
band  10 # energy    2.56881037 # occ.  2.00000000
 
ion      s     py     pz     px    dxy    dyz    dz2    dxz    dx2    tot
  1  0.001  0.003  0.002  0.039  0.000  0.000  0.000  0.000  0.000  0.045
  2  0.001  0.003  0.002  0.039  0.000  0.000  0.000  0.000  0.000  0.045
  3  0.001  0.000  0.004  0.037  0.000  0.000  0.000  0.000  0.000  0.043
  4  0.001  0.000  0.004  0.037  0.000  0.000  0.000  0.000  0.000  0.043
  5  0.000  0.043  0.000  0.006  0.000  0.000  0.000  0.000  0.000  0.049
  6  0.000  0.043  0.000  0.006  0.000  0.000  0.000  0.000  0.000  0.049
  7  0.000  0.028  0.015  0.002  0.000  0.000  0.000  0.000  0.000  0.045
  8  0.000  0.028  0.015  0.002  0.000  0.000  0.000  0.000  0.000  0.045
tot  0.005  0.146  0.044  0.169  0.000  0.000  0.000  0.000  0.000  0.365
 
band  11 # energy    2.56881037 # occ.  2.00000000
 
ion      s     py     pz     px    dxy    dyz    dz2    dxz    dx2    tot
  1  0.000  0.007  0.029  0.004  0.000  0.000  0.000  0.000  0.000  0.040
  2  0.000  0.007  0.029  0.004  0.000  0.000  0.000  0.000  0.000  0.040
  3  0.001  0.003  0.032  0.018  0.000  0.000  0.000  0.000  0.000  0.053
  4  0.001  0.003  0.032  0.018  0.000  0.000  0.000  0.000  0.000  0.053
  5  0.001  0.004  0.009  0.026  0.000  0.000  0.000  0.000  0.000  0.040
  6  0.001  0.004  0.009  0.026  0.000  0.000  0.000  0.000  0.000  0.040
  7  0.001  0.002  0.011  0.036  0.000  0.000  0.000  0.000  0.000  0.050
  8  0.001  0.002  0.011  0.036  0.000  0.000  0.000  0.000  0.000  0.050
tot  0.005  0.030  0.161  0.169  0.000  0.000  0.000  0.000  0.000  0.365
 
band  12 # energy    3.13561177 # occ.  2.00000000
 
ion      s     py     pz     px    dxy    dyz    dz2    dxz    dx2    tot
  1  0.000  0.043  0.007  0.000  0.000  0.000  0.000  0.000  0.000  0.050
  2  0.000  0.043  0.007  0.000  0.000  0.000  0.000  0.000  0.000  0.050
  3  0.000  0.043  0.007  0.000  0.000  0.000  0.000  0.000  0.000  0.050
  4  0.000  0.043  0.007  0.000  0.000  0.000  0.000  0.000  0.000  0.050
  5  0.000  0.005  0.045  0.000  0.000  0.000  0.000  0.000  0.000  0.050
  6  0.000  0.005  0.045  0.000  0.000  0.000  0.000  0.000  0.000  0.050
  7  0.000  0.005  0.045  0.000  0.000  0.000  0.000  0.000  0.000  0.050
  8  0.000  0.005  0.045  0.000  0.000  0.000  0.000  0.000  0.000  0.050
tot  0.000  0.190  0.211  0.000  0.000  0.000  0.000  0.000  0.000  0.400
 
band  13 # energy    3.13561177 # occ.  2.00000000
 
ion      s     py     pz     px    dxy    dyz    dz2    dxz    dx2    tot
  1  0.000  0.007  0.043  0.000  0.000  0.000  0.000  0.000  0.000  0.050
  2  0.000  0.007  0.043  0.000  0.000  0.000  0.000  0.000  0.000  0.050
  3  0.000  0.007  0.043  0.000  0.000  0.000  0.000  0.000  0.000  0.050
  4  0.000  0.007  0.043  0.000  0.000  0.000  0.000  0.000  0.000  0.050
  5  0.000  0.045  0.005  0.000  0.000  0.000  0.000  0.000  0.000  0.050
  6  0.000  0.045  0.005  0.000  0.000  0.000  0.000  0.000  0.000  0.050
  7  0.000  0.045  0.005  0.000  0.000  0.000  0.000  0.000  0.000  0.050
  8  0.000  0.045  0.005  0.000  0.000  0.000  0.000  0.000  0.000  0.050
tot  0.000  0.211  0.190  0.000  0.000  0.000  0.000  0.000  0.000  0.400
 
band  14 # energy    4.89662970 # occ.  2.00000000
 
ion      s     py     pz     px    dxy    dyz    dz2    dxz    dx2    tot
  1  0.019  0.000  0.000  0.041  0.000  0.000  0.000  0.000  0.000  0.060
  2  0.019  0.000  0.000  0.041  0.000  0.000  0.000  0.000  0.000  0.060
  3  0.019  0.000  0.000  0.041  0.000  0.000  0.000  0.000  0.000  0.060
  4  0.019  0.000  0.000  0.041  0.000  0.000  0.000  0.000  0.000  0.060
  5  0.019  0.000  0.000  0.041  0.000  0.000  0.000  0.000  0.000  0.060
  6  0.019  0.000  0.000  0.041  0.000  0.000  0.000  0.000  0.000  0.060
  7  0.019  0.000  0.000  0.041  0.000  0.000  0.000  0.000  0.000  0.060
  8  0.019  0.000  0.000  0.041  0.000  0.000  0.000  0.000  0.000  0.060
tot  0.156  0.000  0.000  0.328  0.000  0.000  0.000  0.000  0.000  0.484
 
band  15 # energy    5.25897489 # occ.  2.00000000
 
ion      s     py     pz     px    dxy    dyz    dz2    dxz    dx2    tot
  1  0.000  0.008  0.044  0.000  0.000  0.000  0.000  0.000  0.000  0.052
  2  0.000  0.008  0.044  0.000  0.000  0.000  0.000  0.000  0.000  0.052
  3  0.000  0.008  0.044  0.000  0.000  0.000  0.000  0.000  0.000  0.052
  4  0.000  0.008  0.044  0.000  0.000  0.000  0.000  0.000  0.000  0.052
  5  0.000  0.046  0.007  0.000  0.000  0.000  0.000  0.000  0.000  0.052
  6  0.000  0.046  0.007  0.000  0.000  0.000  0.000  0.000  0.000  0.052
  7  0.000  0.046  0.007  0.000  0.000  0.000  0.000  0.000  0.000  0.052
  8  0.000  0.046  0.007  0.000  0.000  0.000  0.000  0.000  0.000  0.052
tot  0.000  0.215  0.204  0.000  0.000  0.000  0.000  0.000  0.000  0.419
 
band  16 # energy    5.25897490 # occ.  2.00000000
 
ion      s     py     pz     px    dxy    dyz    dz2    dxz    dx2    tot
  1  0.000  0.044  0.008  0.000  0.000  0.000  0.000  0.000  0.000  0.052
  2  0.000  0.044  0.008  0.000  0.000  0.000  0.000  0.000  0.000  0.052
  3  0.000  0.044  0.008  0.000  0.000  0.000  0.000  0.000  0.000  0.052
  4  0.000  0.044  0.008  0.000  0.000  0.000  0.000  0.000  0.000  0.052
  5  0.000  0.007  0.046  0.000  0.000  0.000  0.000  0.000  0.000  0.052
  6  0.000  0.007  0.046  0.000  0.000  0.000  0.000  0.000  0.000  0.052
  7  0.000  0.007  0.046  0.000  0.000  0.000  0.000  0.000  0.000  0.052
  8  0.000  0.007  0.046  0.000  0.000  0.000  0.000  0.000  0.000  0.052
tot  0.000  0.204  0.215  0.000  0.000  0.000  0.000  0.000  0.000  0.419
 
band  17 # energy    6.42283475 # occ.  0.00000000
 
ion      s     py     pz     px    dxy    dyz    dz2    dxz    dx2    tot
  1  0.013  0.000  0.000  0.012  0.000  0.000  0.000  0.000  0.000  0.025
  2  0.013  0.000  0.000  0.012  0.000  0.000  0.000  0.000  0.000  0.025