<?xml version="1.0" encoding="ISO-8859-1"?>
<modeling>
 <generator>
  <i name="program" type="string">vasp </i>
  <i name="version" type="string">5.4.1  </i>
  <i name="subversion" type="string">05Feb16 (build Aug 09 2016 09:44:09) complex                          parallel </i>
  <i name="platform" type="string">Abel-impi-ifc-cuda </i>
  <i name="date" type="string">2018 09 04 </i>
  <i name="time" type="string">12:57:35 </i>
 </generator>
 <incar>
  <i type="string" name="PREC">normal    ! low/normal/accurate</i>
  <i type="string" name="ALGO"> Fast      ! Algorithm for electronic re</i>
  <i type="int" name="ISPIN">     1</i>
  <i type="int" name="NELMIN">     4</i>
  <i name="EDIFF">      0.00000100</i>
  <i type="int" name="NSW">     0</i>
  <i name="ENCUT">    250.00000000</i>
  <i type="int" name="NEDOS">  2401</i>
  <i type="string" name="LREAL"> Auto      ! Projection in reciprocal sp</i>
  <i name="EMIN">    -12.00000000</i>
  <i name="EMAX">     12.00000000</i>
  <i type="int" name="ISMEAR">    -5</i>
  <i name="SIGMA">      0.20000000</i>
  <i type="logical" name="LWAVE"> F  </i>
  <i type="logical" name="LORBIT"> F  </i>
  <i type="logical" name="LELF"> T  </i>
  <v type="int" name="KPOINT_BSE">    -1     0     0     0</v>
 </incar>
 <kpoints>
  <generation param="Gamma">
   <v type="int" name="divisions">       5        5        5 </v>
   <v name="usershift">      0.00000000       0.00000000       0.00000000 </v>
   <v name="genvec1">      0.20000000       0.00000000       0.00000000 </v>
   <v name="genvec2">      0.00000000       0.20000000       0.00000000 </v>
   <v name="genvec3">      0.00000000       0.00000000       0.20000000 </v>
   <v name="shift">      0.00000000       0.00000000       0.00000000 </v>
  </generation>
  <varray name="kpointlist" >
   <v>       0.00000000       0.00000000       0.00000000 </v>
   <v>       0.20000000       0.00000000       0.00000000 </v>
   <v>       0.40000000       0.00000000       0.00000000 </v>
   <v>       0.20000000       0.20000000       0.00000000 </v>
   <v>       0.40000000       0.20000000       0.00000000 </v>
   <v>       0.40000000       0.40000000       0.00000000 </v>
   <v>       0.20000000       0.20000000       0.20000000 </v>
   <v>       0.40000000       0.20000000       0.20000000 </v>
   <v>       0.40000000       0.40000000       0.20000000 </v>
   <v>       0.40000000       0.40000000       0.40000000 </v>
  </varray>
  <varray name="weights" >
   <v>       0.00800000 </v>
   <v>       0.04800000 </v>
   <v>       0.04800000 </v>
   <v>       0.09600000 </v>
   <v>       0.19200000 </v>
   <v>       0.09600000 </v>
   <v>       0.06400000 </v>
   <v>       0.19200000 </v>
   <v>       0.19200000 </v>
   <v>       0.06400000 </v>
  </varray>
  <varray name="tetrahedronlist"  type="int" >
   <v type="int" >       12        1        2        2        4 </v>
   <v type="int" >       12        2        2        4        4 </v>
   <v type="int" >       12        2        4        4        7 </v>
   <v type="int" >       12        2        3        4        5 </v>
   <v type="int" >       12        2        4        4        5 </v>
   <v type="int" >       12        4        4        5        7 </v>
   <v type="int" >       12        3        4        5        5 </v>
   <v type="int" >       24        4        5        5        8 </v>
   <v type="int" >       24        4        5        7        8 </v>
   <v type="int" >        6        3        3        5        5 </v>
   <v type="int" >       12        3        5        5        5 </v>
   <v type="int" >       12        5        5        5        8 </v>
   <v type="int" >        6        5        5        8        8 </v>
   <v type="int" >       12        4        5        6        7 </v>
   <v type="int" >       12        5        6        7        8 </v>
   <v type="int" >       12        6        7        8        9 </v>
   <v type="int" >       24        5        5        6        8 </v>
   <v type="int" >       12        5        6        6        8 </v>
   <v type="int" >       12        6        6        8        9 </v>
   <v type="int" >       12        5        6        8        8 </v>
   <v type="int" >       12        6        8        8        9 </v>
   <v type="int" >       12        6        8        9        9 </v>
   <v type="int" >       12        5        6        8        9 </v>
   <v type="int" >       12        5        7        8        8 </v>
   <v type="int" >       24        5        8        8        9 </v>
   <v type="int" >       12        2        3        4        7 </v>
   <v type="int" >       12        3        4        5        7 </v>
   <v type="int" >       12        3        5        7        8 </v>
   <v type="int" >       12        6        6        6        9 </v>
   <v type="int" >       12        6        6        9        9 </v>
   <v type="int" >       12        6        9        9        9 </v>
   <v type="int" >       12        5        5        6        9 </v>
   <v type="int" >       12        5        6        6        9 </v>
   <v type="int" >       12        5        6        9        9 </v>
   <v type="int" >       12        5        5        8        9 </v>
   <v type="int" >       12        5        8        9        9 </v>
   <v type="int" >       12        3        3        5        8 </v>
   <v type="int" >       12        3        5        5        8 </v>
   <v type="int" >       12        3        5        8        8 </v>
   <v type="int" >       12        4        5        6        9 </v>
   <v type="int" >       12        4        5        8        9 </v>
   <v type="int" >       12        4        7        8        9 </v>
   <v type="int" >       12        2        3        5        8 </v>
   <v type="int" >       12        2        4        5        8 </v>
   <v type="int" >       12        2        4        7        8 </v>
   <v type="int" >       12        1        2        4        7 </v>
   <v type="int" >       12        7        8        8        9 </v>
   <v type="int" >       18        8        8        9        9 </v>
   <v type="int" >       24        8        9        9       10 </v>
   <v type="int" >       12        8        9        9        9 </v>
   <v type="int" >       24        9        9        9       10 </v>
   <v type="int" >       18        9        9       10       10 </v>
   <v type="int" >       12        9       10       10       10 </v>
   <v type="int" >       12        8        8        9       10 </v>
   <v type="int" >       12        8        9       10       10 </v>
   <v type="int" >       12        7        8        9       10 </v>
   <v type="int" >        6       10       10       10       10 </v>
  </varray>
  <i name="volumeweight">      0.00133333 </i>
 </kpoints>
 <parameters>
  <separator name="general" >
   <i type="string" name="SYSTEM">unknown system</i>
   <i type="logical" name="LCOMPAT"> F  </i>
  </separator>
  <separator name="electronic" >
   <i type="string" name="PREC">normal</i>
   <i name="ENMAX">    250.00000000</i>
   <i name="ENAUG">    322.06900000</i>
   <i name="EDIFF">      0.00000100</i>
   <i type="int" name="IALGO">    68</i>
   <i type="int" name="IWAVPR">    10</i>
   <i type="int" name="NBANDS">    21</i>
   <i name="NELECT">     32.00000000</i>
   <i type="int" name="TURBO">     0</i>
   <i type="int" name="IRESTART">     0</i>
   <i type="int" name="NREBOOT">     0</i>
   <i type="int" name="NMIN">     0</i>
   <i name="EREF">      0.00000000</i>
   <separator name="electronic smearing" >
    <i type="int" name="ISMEAR">    -5</i>
    <i name="SIGMA">      0.20000000</i>
    <i name="KSPACING">      0.50000000</i>
    <i type="logical" name="KGAMMA"> T  </i>
   </separator>
   <separator name="electronic projectors" >
    <i type="logical" name="LREAL"> T  </i>
    <v name="ROPT">     -0.00050000</v>
    <i type="int" name="LMAXPAW">  -100</i>
    <i type="int" name="LMAXMIX">     2</i>
    <i type="logical" name="NLSPLINE"> F  </i>
   </separator>
   <separator name="electronic startup" >
    <i type="int" name="ISTART">     0</i>
    <i type="int" name="ICHARG">     2</i>
    <i type="int" name="INIWAV">     1</i>
   </separator>
   <separator name="electronic spin" >
    <i type="int" name="ISPIN">     1</i>
    <i type="logical" name="LNONCOLLINEAR"> F  </i>
    <v name="MAGMOM">      1.00000000      1.00000000      1.00000000      1.00000000      1.00000000      1.00000000      1.00000000      1.00000000</v>
    <i name="NUPDOWN">     -1.00000000</i>
    <i type="logical" name="LSORBIT"> F  </i>
    <v name="SAXIS">      0.00000000      0.00000000      1.00000000</v>
    <i type="logical" name="LSPIRAL"> F  </i>
    <v name="QSPIRAL">      0.00000000      0.00000000      0.00000000</v>
    <i type="logical" name="LZEROZ"> F  </i>
   </separator>
   <separator name="electronic exchange-correlation" >
    <i type="logical" name="LASPH"> F  </i>
    <i type="logical" name="LMETAGGA"> F  </i>
   </separator>
   <separator name="electronic convergence" >
    <i type="int" name="NELM">    60</i>
    <i type="int" name="NELMDL">     0</i>
    <i type="int" name="NELMIN">     4</i>
    <i name="ENINI">    250.00000000</i>
    <separator name="electronic convergence detail" >
     <i type="logical" name="LDIAG"> T  </i>
     <i type="logical" name="LSUBROT"> F  </i>
     <i name="WEIMIN">      0.00000000</i>
     <i name="EBREAK">      0.00000001</i>
     <i name="DEPER">      0.30000000</i>
     <i type="int" name="NRMM">     4</i>
     <i name="TIME">      0.40000000</i>
    </separator>
   </separator>
   <separator name="electronic mixer" >
    <i name="AMIX">      0.40000000</i>
    <i name="BMIX">      1.00000000</i>
    <i name="AMIN">      0.10000000</i>
    <i name="AMIX_MAG">      1.60000000</i>
    <i name="BMIX_MAG">      1.00000000</i>
    <separator name="electronic mixer details" >
     <i type="int" name="IMIX">     4</i>
     <i type="logical" name="MIXFIRST"> F  </i>
     <i type="int" name="MAXMIX">   -45</i>
     <i name="WC">    100.00000000</i>
     <i type="int" name="INIMIX">     1</i>
     <i type="int" name="MIXPRE">     1</i>
     <i type="int" name="MREMOVE">     5</i>
    </separator>
   </separator>
   <separator name="electronic dipolcorrection" >
    <i type="logical" name="LDIPOL"> F  </i>
    <i type="logical" name="LMONO"> F  </i>
    <i type="int" name="IDIPOL">     0</i>
    <i name="EPSILON">      1.00000000</i>
    <v name="DIPOL">   -100.00000000   -100.00000000   -100.00000000</v>
    <i name="EFIELD">      0.00000000</i>
   </separator>
  </separator>
  <separator name="grids" >
   <i type="int" name="NGX">    24</i>
   <i type="int" name="NGY">    24</i>
   <i type="int" name="NGZ">    24</i>
   <i type="int" name="NGXF">    48</i>
   <i type="int" name="NGYF">    48</i>
   <i type="int" name="NGZF">    48</i>
   <i type="logical" name="ADDGRID"> F  </i>
  </separator>
  <separator name="ionic" >
   <i type="int" name="NSW">     0</i>
   <i type="int" name="IBRION">    -1</i>
   <i type="int" name="ISIF">     2</i>
   <i name="PSTRESS">      0.00000000</i>
   <i name="EDIFFG">      0.00001000</i>
   <i type="int" name="NFREE">     0</i>
   <i name="POTIM">      0.50000000</i>
   <i name="SMASS">     -3.00000000</i>
   <i name="SCALEE">      1.00000000</i>
  </separator>
  <separator name="ionic md" >
   <i name="TEBEG">      0.00010000</i>
   <i name="TEEND">      0.00010000</i>
   <i type="int" name="NBLOCK">     1</i>
   <i type="int" name="KBLOCK">     1</i>
   <i type="int" name="NPACO">   256</i>
   <i name="APACO">     16.00000000</i>
  </separator>
  <separator name="symmetry" >
   <i type="int" name="ISYM">     2</i>
   <i name="SYMPREC">      0.00001000</i>
  </separator>
  <separator name="dos" >
   <i type="logical" name="LORBIT"> F  </i>
   <v name="RWIGS">     -1.00000000</v>
   <i type="int" name="NEDOS">  2401</i>
   <i name="EMIN">    -12.00000000</i>
   <i name="EMAX">     12.00000000</i>
   <i name="EFERMI">      0.00000000</i>
  </separator>
  <separator name="writing" >
   <i type="int" name="NWRITE">     2</i>
   <i type="logical" name="LWAVE"> F  </i>
   <i type="logical" name="LCHARG"> T  </i>
   <i type="logical" name="LPARD"> F  </i>
   <i type="logical" name="LVTOT"> F  </i>
   <i type="logical" name="LVHAR"> F  </i>
   <i type="logical" name="LELF"> T  </i>
   <i type="logical" name="LOPTICS"> F  </i>
   <v name="STM">      0.00000000      0.00000000      0.00000000      0.00000000      0.00000000      0.00000000      0.00000000</v>
  </separator>
  <separator name="performance" >
   <i type="int" name="NPAR">     1</i>
   <i type="int" name="NSIM">     4</i>
   <i type="int" name="NBLK">    -1</i>
   <i type="logical" name="LPLANE"> T  </i>
   <i type="logical" name="LSCALAPACK"> F  </i>
   <i type="logical" name="LSCAAWARE"> F  </i>
   <i type="logical" name="LSCALU"> F  </i>
   <i type="logical" name="LASYNC"> F  </i>
   <i type="logical" name="LORBITALREAL"> F  </i>
  </separator>
  <separator name="miscellaneous" >
   <i type="int" name="IDIOT">     3</i>
   <i type="logical" name="LMUSIC"> F  </i>
   <v name="POMASS">     28.08500000</v>
   <v name="DARWINR">      0.00000000</v>
   <v name="DARWINV">      1.00000000</v>
   <i type="logical" name="LCORR"> T  </i>
  </separator>
  <i type="logical" name="GGA_COMPAT"> T  </i>
  <i type="logical" name="LBERRY"> F  </i>
  <i type="int" name="ICORELEVEL">     0</i>
  <i type="logical" name="LDAU"> F  </i>
  <i type="int" name="I_CONSTRAINED_M">     0</i>
  <separator name="electronic exchange-correlation" >
   <i type="string" name="GGA">--</i>
   <i type="int" name="VOSKOWN">     0</i>
   <i type="logical" name="LHFCALC"> F  </i>
   <i type="string" name="PRECFOCK"></i>
   <i type="logical" name="LSYMGRAD"> F  </i>
   <i type="logical" name="LHFONE"> F  </i>
   <i type="logical" name="LRHFCALC"> F  </i>
   <i type="logical" name="LTHOMAS"> F  </i>
   <i type="logical" name="LMODELHF"> F  </i>
   <i name="ENCUT4O">     -1.00000000</i>
   <i type="int" name="EXXOEP">     0</i>
   <i type="int" name="FOURORBIT">     0</i>
   <i name="AEXX">      0.00000000</i>
   <i name="HFALPHA">      0.00000000</i>
   <i name="MCALPHA">      0.00000000</i>
   <i name="ALDAX">      1.00000000</i>
   <i name="AGGAX">      1.00000000</i>
   <i name="ALDAC">      1.00000000</i>
   <i name="AGGAC">      1.00000000</i>
   <i type="int" name="NKREDX">     1</i>
   <i type="int" name="NKREDY">     1</i>
   <i type="int" name="NKREDZ">     1</i>
   <i type="logical" name="SHIFTRED"> F  </i>
   <i type="logical" name="ODDONLY"> F  </i>
   <i type="logical" name="EVENONLY"> F  </i>
   <i type="int" name="LMAXFOCK">     0</i>
   <i type="int" name="NMAXFOCKAE">     0</i>
   <i type="logical" name="LFOCKAEDFT"> F  </i>
   <i name="HFSCREEN">      0.00000000</i>
   <i name="HFSCREENC">      0.00000000</i>
   <i type="int" name="NBANDSGWLOW">     0</i>
  </separator>
  <separator name="vdW DFT" >
   <i type="logical" name="LUSE_VDW"> F  </i>
   <i name="Zab_VDW">     -0.84910000</i>
   <i name="PARAM1">      0.12340000</i>
   <i name="PARAM2">      1.00000000</i>
   <i name="PARAM3">      0.00000000</i>
  </separator>
  <separator name="model GW" >
   <i type="int" name="MODEL_GW">     0</i>
   <i name="MODEL_EPS0">     12.01442721</i>
   <i name="MODEL_ALPHA">      1.00000000</i>
  </separator>
  <separator name="linear response parameters" >
   <i type="logical" name="LEPSILON"> F  </i>
   <i type="logical" name="LRPA"> F  </i>
   <i type="logical" name="LNABLA"> F  </i>
   <i type="logical" name="LVEL"> F  </i>
   <i type="int" name="KINTER">     0</i>
   <i name="CSHIFT">      0.10000000</i>
   <i name="OMEGAMAX">     -1.00000000</i>
   <i name="DEG_THRESHOLD">      0.00200000</i>
  </separator>
  <separator name="orbital magnetization" >
   <i type="logical" name="NUCIND"> F  </i>
   <v name="MAGPOS">      0.00000000      0.00000000      0.00000000</v>
   <i type="logical" name="LNICSALL"> T  </i>
   <i type="logical" name="ORBITALMAG"> F  </i>
   <i type="logical" name="LMAGBLOCH"> F  </i>
   <i type="logical" name="LCHIMAG"> F  </i>
   <i type="logical" name="LGAUGE"> T  </i>
   <i type="int" name="MAGATOM">     0</i>
   <v name="MAGDIPOL">      0.00000000      0.00000000      0.00000000</v>
   <v name="AVECCONST">      0.00000000      0.00000000      0.00000000</v>
  </separator>
  <separator name="response functions" >
   <i type="logical" name="LADDER"> F  </i>
   <i type="logical" name="LFXC"> F  </i>
   <i type="logical" name="LHARTREE"> T  </i>
   <i type="int" name="IBSE">     0</i>
   <v type="int" name="KPOINT">    -1     0     0     0</v>
   <i type="logical" name="LTCTE"> F  </i>
   <i type="logical" name="LTETE"> F  </i>
   <i type="logical" name="LTRIPLET"> F  </i>
   <i type="logical" name="LFXCEPS"> F  </i>
   <i type="logical" name="LFXHEG"> F  </i>
   <i type="int" name="NATURALO">     0</i>
   <i type="logical" name="L2ORDER"> F  </i>
   <i type="logical" name="LUSEW"> F  </i>
   <i name="ENCUTGW">     -2.00000000</i>
   <i name="ENCUTGWSOFT">     -2.00000000</i>
   <i name="ENCUTLF">     -1.00000000</i>
   <i type="int" name="LMAXMP2">    -1</i>
   <i name="SCISSOR">      0.00000000</i>
   <i type="int" name="NOMEGA">     0</i>
   <i type="int" name="NOMEGAR">     0</i>
   <i type="int" name="NBANDSGW">    -1</i>
   <i type="int" name="NBANDSO">    -1</i>
   <i type="int" name="NBANDSV">    -1</i>
   <i type="int" name="NELM">     1</i>
   <i type="int" name="NELMHF">     1</i>
   <i type="int" name="DIM">     3</i>
   <i type="int" name="ANTIRES">     0</i>
   <i name="OMEGAMAX">    -30.00000000</i>
   <i name="OMEGAMIN">    -30.00000000</i>
   <i name="OMEGATL">   -200.00000000</i>
   <i type="int" name="OMEGAGRID">     0</i>
   <i name="CSHIFT">     -0.10000000</i>
   <i type="logical" name="SELFENERGY"> F  </i>
   <i type="logical" name="LSPECTRAL"> F  </i>
   <i type="logical" name="LSPECTRALGW"> F  </i>
   <i type="logical" name="LSINGLES"> F  </i>
   <i type="logical" name="LFERMIGW"> F  </i>
   <i type="logical" name="ODDONLYGW"> F  </i>
   <i type="logical" name="EVENONLYGW"> F  </i>
   <i type="int" name="NKREDLFX">     1</i>
   <i type="int" name="NKREDLFY">     1</i>
   <i type="int" name="NKREDLFZ">     1</i>
   <i type="int" name="MAXMEM">  1800</i>
   <i type="int" name="TELESCOPE">     0</i>
   <i type="int" name="TAUPAR">     1</i>
   <i type="int" name="OMEGAPAR">    -1</i>
   <i name="LAMBDA">      1.00000000</i>
  </separator>
  <separator name="External order field" >
   <i name="OFIELD_KAPPA">      0.00000000</i>
   <v name="OFIELD_K">      0.00000000      0.00000000      0.00000000</v>
   <i name="OFIELD_Q6_NEAR">      0.00000000</i>
   <i name="OFIELD_Q6_FAR">      0.00000000</i>
   <i name="OFIELD_A">      0.00000000</i>
  </separator>
 </parameters>
 <atominfo>
  <atoms>       8 </atoms>
  <types>       1 </types>
  <array name="atoms" >
   <dimension dim="1">ion</dimension>
   <field type="string">element</field>
   <field type="int">atomtype</field>
   <set>
    <rc><c>Si</c><c>   1</c></rc>
    <rc><c>Si</c><c>   1</c></rc>
    <rc><c>Si</c><c>   1</c></rc>
    <rc><c>Si</c><c>   1</c></rc>
    <rc><c>Si</c><c>   1</c></rc>
    <rc><c>Si</c><c>   1</c></rc>
    <rc><c>Si</c><c>   1</c></rc>
    <rc><c>Si</c><c>   1</c></rc>
   </set>
  </array>
  <array name="atomtypes" >
   <dimension dim="1">type</dimension>
   <field type="int">atomspertype</field>
   <field type="string">element</field>
   <field>mass</field>
   <field>valence</field>
   <field type="string">pseudopotential</field>
   <set>
    <rc><c>   8</c><c>Si</c><c>     28.08500000</c><c>      4.00000000</c><c> PAW_PBE Si 05Jan2001                   </c></rc>
   </set>
  </array>
 </atominfo>
 <structure name="initialpos" >
  <crystal>
   <varray name="basis" >
    <v>       5.43101000       0.00000000       0.00000000 </v>
    <v>       0.00000000       5.43101000       0.00000000 </v>
    <v>       0.00000000       0.00000000       5.43101000 </v>
   </varray>
   <i name="volume">    160.19236287 </i>
   <varray name="rec_basis" >
    <v>       0.18412781       0.00000000       0.00000000 </v>
    <v>       0.00000000       0.18412781       0.00000000 </v>
    <v>       0.00000000       0.00000000       0.18412781 </v>
   </varray>
  </crystal>
  <varray name="positions" >
   <v>       0.00000000       0.00000000       0.00000000 </v>
   <v>       0.00000000       0.50000000       0.50000000 </v>
   <v>       0.50000000       0.00000000       0.50000000 </v>
   <v>       0.50000000       0.50000000       0.00000000 </v>
   <v>       0.25000000       0.25000000       0.25000000 </v>
   <v>       0.25000000       0.75000000       0.75000000 </v>
   <v>       0.75000000       0.25000000       0.75000000 </v>
   <v>       0.75000000       0.75000000       0.25000000 </v>
  </varray>
 </structure>
 <calculation>
  <scstep>
   <time name="dav">    0.14    0.15</time>
   <time name="total">    0.17    0.17</time>
   <energy>
    <i name="alphaZ">     13.44906198 </i>
    <i name="ewald">   -914.08410953 </i>
    <i name="hartreedc">    -44.03783020 </i>
    <i name="XCdc">    -74.41607736 </i>
    <i name="pawpsdc">    263.82083246 </i>
    <i name="pawaedc">   -123.07410713 </i>
    <i name="eentropy">      0.00000000 </i>
    <i name="bandstr">     97.25205102 </i>
    <i name="atom">    824.49399690 </i>
    <i name="e_fr_energy">     43.40381814 </i>
    <i name="e_wo_entrp">     43.40381814 </i>
    <i name="e_0_energy">     43.40381814 </i>
   </energy>
  </scstep>
  <scstep>
   <time name="dav">    0.18    0.18</time>
   <time name="total">    0.18    0.19</time>
   <energy>
    <i name="e_fr_energy">    -40.12130738 </i>
    <i name="e_wo_entrp">    -40.12130738 </i>
    <i name="e_0_energy">    -40.12130738 </i>
   </energy>
  </scstep>
  <scstep>
   <time name="dav">    0.18    0.18</time>
   <time name="total">    0.18    0.19</time>
   <energy>
    <i name="e_fr_energy">    -43.95068634 </i>
    <i name="e_wo_entrp">    -43.95068634 </i>
    <i name="e_0_energy">    -43.95068634 </i>
   </energy>
  </scstep>
  <scstep>
   <time name="dav">    0.17    0.17</time>
   <time name="total">    0.17    0.18</time>
   <energy>
    <i name="e_fr_energy">    -44.01246227 </i>
    <i name="e_wo_entrp">    -44.01246227 </i>
    <i name="e_0_energy">    -44.01246227 </i>
   </energy>
  </scstep>
  <scstep>
   <time name="dav">    0.17    0.17</time>
   <time name="total">    0.18    0.19</time>
   <energy>
    <i name="e_fr_energy">    -44.01408040 </i>
    <i name="e_wo_entrp">    -44.01408040 </i>
    <i name="e_0_energy">    -44.01408040 </i>
   </energy>
  </scstep>
  <scstep>
   <time name="diag">    0.02    0.02</time>
   <time name="diis">    0.10    0.10</time>
   <time name="orth">    0.00    0.00</time>
   <time name="total">    0.16    0.17</time>
   <energy>
    <i name="e_fr_energy">    -43.51848046 </i>
    <i name="e_wo_entrp">    -43.51848046 </i>
    <i name="e_0_energy">    -43.51848046 </i>
   </energy>
  </scstep>
  <scstep>
   <time name="diag">    0.02    0.02</time>
   <time name="diis">    0.10    0.10</time>
   <time name="orth">    0.00    0.00</time>
   <time name="total">    0.16    0.17</time>
   <energy>
    <i name="e_fr_energy">    -43.29197385 </i>
    <i name="e_wo_entrp">    -43.29197385 </i>
    <i name="e_0_energy">    -43.29197385 </i>
   </energy>
  </scstep>
  <scstep>
   <time name="diag">    0.02    0.02</time>
   <time name="diis">    0.11    0.11</time>
   <time name="orth">    0.00    0.00</time>
   <time name="total">    0.17    0.17</time>
   <energy>
    <i name="e_fr_energy">    -43.29727829 </i>
    <i name="e_wo_entrp">    -43.29727829 </i>
    <i name="e_0_energy">    -43.29727829 </i>
   </energy>
  </scstep>
  <scstep>
   <time name="diag">    0.02    0.02</time>
   <time name="diis">    0.12    0.12</time>
   <time name="orth">    0.00    0.00</time>
   <time name="total">    0.17    0.18</time>
   <energy>
    <i name="e_fr_energy">    -43.29767099 </i>
    <i name="e_wo_entrp">    -43.29767099 </i>
    <i name="e_0_energy">    -43.29767099 </i>
   </energy>
  </scstep>
  <scstep>
   <time name="diag">    0.02    0.02</time>
   <time name="diis">    0.11    0.11</time>
   <time name="orth">    0.00    0.00</time>
   <time name="total">    0.17    0.17</time>
   <energy>
    <i name="e_fr_energy">    -43.29774438 </i>
    <i name="e_wo_entrp">    -43.29774438 </i>
    <i name="e_0_energy">    -43.29774438 </i>
   </energy>
  </scstep>
  <scstep>
   <time name="diag">    0.02    0.02</time>
   <time name="diis">    0.12    0.12</time>
   <time name="orth">    0.00    0.00</time>
   <time name="total">    0.17    0.18</time>
   <energy>
    <i name="e_fr_energy">    -43.29773601 </i>
    <i name="e_wo_entrp">    -43.29773601 </i>
    <i name="e_0_energy">    -43.29773601 </i>
   </energy>
  </scstep>
  <scstep>
   <time name="diag">    0.02    0.02</time>
   <time name="diis">    0.08    0.08</time>
   <time name="orth">    0.00    0.00</time>
   <time name="total">    0.12    0.13</time>
   <energy>
    <i name="alphaZ">     13.44906198 </i>
    <i name="ewald">   -914.08410953 </i>
    <i name="hartreedc">    -59.67363008 </i>
    <i name="XCdc">    -71.82632277 </i>
    <i name="pawpsdc">    299.80192655 </i>
    <i name="pawaedc">   -159.97599996 </i>
    <i name="eentropy">      0.00000000 </i>
    <i name="bandstr">     24.51734121 </i>
    <i name="atom">    824.49399690 </i>
    <i name="e_fr_energy">    -43.29773570 </i>
    <i name="e_wo_entrp">    -43.29773570 </i>
    <i name="e_0_energy">    -43.29773570 </i>
   </energy>
  </scstep>
  <structure>
   <crystal>
    <varray name="basis" >
     <v>       5.43101000       0.00000000       0.00000000 </v>
     <v>       0.00000000       5.43101000       0.00000000 </v>
     <v>       0.00000000       0.00000000       5.43101000 </v>
    </varray>
    <i name="volume">    160.19236287 </i>
    <varray name="rec_basis" >
     <v>       0.18412781       0.00000000       0.00000000 </v>
     <v>       0.00000000       0.18412781       0.00000000 </v>
     <v>       0.00000000       0.00000000       0.18412781 </v>
    </varray>
   </crystal>
   <varray name="positions" >
    <v>       0.00000000       0.00000000       0.00000000 </v>
    <v>       0.00000000       0.50000000       0.50000000 </v>
    <v>       0.50000000       0.00000000       0.50000000 </v>
    <v>       0.50000000       0.50000000       0.00000000 </v>
    <v>       0.25000000       0.25000000       0.25000000 </v>
    <v>       0.25000000       0.75000000       0.75000000 </v>
    <v>       0.75000000       0.25000000       0.75000000 </v>
    <v>       0.75000000       0.75000000       0.25000000 </v>
   </varray>
  </structure>
  <varray name="forces" >
   <v>      -0.00000000       0.00000000      -0.00000000 </v>
   <v>       0.00000000       0.00000000      -0.00000000 </v>
   <v>      -0.00000000       0.00000000       0.00000000 </v>
   <v>      -0.00000000       0.00000000      -0.00000000 </v>
   <v>       0.00000000      -0.00000000       0.00000000 </v>
   <v>       0.00000000       0.00000000      -0.00000000 </v>
   <v>      -0.00000000      -0.00000000       0.00000000 </v>
   <v>       0.00000000      -0.00000000       0.00000000 </v>
  </varray>
  <varray name="stress" >
   <v>      18.02257415       0.00000000      -0.00000000 </v>
   <v>      -0.00000000      18.02257415       0.00000000 </v>
   <v>       0.00000000       0.00000000      18.02257415 </v>
  </varray>
  <energy>
   <i name="e_fr_energy">    -43.29773570 </i>
   <i name="e_wo_entrp">    -43.29773570 </i>
   <i name="e_0_energy">      0.00000000 </i>
  </energy>
  <time name="totalsc">    2.38    2.45</time>
  <eigenvalues>
   <array>
    <dimension dim="1">band</dimension>
    <dimension dim="2">kpoint</dimension>
    <dimension dim="3">spin</dimension>
    <field>eigene</field>
    <field>occ</field>
    <set>
     <set comment="spin 1">
      <set comment="kpoint 1">
       <r>   -6.1322    1.0000 </r>
       <r>   -1.9877    1.0000 </r>
       <r>   -1.9877    1.0000 </r>
       <r>   -1.9877    1.0000 </r>
       <r>   -1.9877    1.0000 </r>
       <r>   -1.9877    1.0000 </r>
       <r>   -1.9877    1.0000 </r>
       <r>    2.9776    1.0000 </r>
       <r>    2.9776    1.0000 </r>
       <r>    2.9776    1.0000 </r>
       <r>    2.9776    1.0000 </r>
       <r>    2.9776    1.0000 </r>
       <r>    2.9776    1.0000 </r>
       <r>    5.8360    1.0000 </r>
       <r>    5.8360    1.0000 </r>
       <r>    5.8360    1.0000 </r>
       <r>    6.5531    0.0000 </r>
       <r>    6.5531    0.0000 </r>
       <r>    6.5531    0.0000 </r>
       <r>    6.5531    0.0000 </r>
       <r>    6.5531    0.0000 </r>
      </set>
      <set comment="kpoint 2">
       <r>   -5.9573    1.0000 </r>
       <r>   -3.4197    1.0000 </r>
       <r>   -1.9347    1.0000 </r>
       <r>   -1.9347    1.0000 </r>
       <r>   -1.9347    1.0000 </r>
       <r>   -1.9347    1.0000 </r>
       <r>   -0.3485    1.0000 </r>
       <r>    2.5688    1.0000 </r>
       <r>    2.5688    1.0000 </r>
       <r>    2.5688    1.0000 </r>
       <r>    2.5688    1.0000 </r>
       <r>    3.1356    1.0000 </r>
       <r>    3.1356    1.0000 </r>
       <r>    4.8966    1.0000 </r>
       <r>    5.2590    1.0000 </r>
       <r>    5.2590    1.0000 </r>
       <r>    6.4228    0.0000 </r>
       <r>    7.1561    0.0000 </r>
       <r>    7.4066    0.0000 </r>
       <r>    7.4066    0.0000 </r>
       <r>    7.4066    0.0000 </r>
      </set>
      <set comment="kpoint 3">
       <r>   -5.4368    1.0000 </r>
       <r>   -4.5829    1.0000 </r>
       <r>   -1.8413    1.0000 </r>
       <r>   -1.8413    1.0000 </r>
       <r>   -1.8413    1.0000 </r>
       <r>   -1.8413    1.0000 </r>
       <r>    1.4153    1.0000 </r>
       <r>    2.0555    1.0000 </r>
       <r>    2.0555    1.0000 </r>
       <r>    2.0555    1.0000 </r>
       <r>    2.0555    1.0000 </r>
       <r>    3.2086    1.0000 </r>
       <r>    3.6020    1.0000 </r>
       <r>    3.6020    1.0000 </r>
       <r>    4.3440    1.0000 </r>
       <r>    4.3440    1.0000 </r>
       <r>    6.7020    0.0000 </r>
       <r>    7.3008    0.0000 </r>
       <r>    8.2632    0.0000 </r>
       <r>    9.2771    0.0000 </r>
       <r>    9.2771    0.0000 </r>
      </set>
      <set comment="kpoint 4">
       <r>   -5.7847    1.0000 </r>
       <r>   -3.3014    1.0000 </r>
       <r>   -3.3014    1.0000 </r>
       <r>   -2.2149    1.0000 </r>
       <r>   -1.6097    1.0000 </r>
       <r>   -0.4340    1.0000 </r>
       <r>   -0.4340    1.0000 </r>
       <r>    1.7664    1.0000 </r>
       <r>    2.6118    1.0000 </r>
       <r>    2.6118    1.0000 </r>
       <r>    2.9383    1.0000 </r>
       <r>    2.9383    1.0000 </r>
       <r>    3.2545    1.0000 </r>
       <r>    3.8016    1.0000 </r>
       <r>    4.6727    1.0000 </r>
       <r>    5.6578    1.0000 </r>
       <r>    6.8733    0.0000 </r>
       <r>    7.3272    0.0000 </r>
       <r>    7.3272    0.0000 </r>
       <r>    7.9198    0.0000 </r>
       <r>    7.9198    0.0000 </r>
      </set>
      <set comment="kpoint 5">
       <r>   -5.2715    1.0000 </r>
       <r>   -4.4334    1.0000 </r>
       <r>   -2.9809    1.0000 </r>
       <r>   -2.5691    1.0000 </r>
       <r>   -1.1825    1.0000 </r>
       <r>   -0.7322    1.0000 </r>
       <r>    1.0586    1.0000 </r>
       <r>    1.4936    1.0000 </r>
       <r>    1.8512    1.0000 </r>
       <r>    2.4575    1.0000 </r>
       <r>    2.8387    1.0000 </r>
       <r>    3.0233    1.0000 </r>
       <r>    3.1175    1.0000 </r>
       <r>    3.7459    1.0000 </r>
       <r>    3.7512    1.0000 </r>
       <r>    4.8615    1.0000 </r>
       <r>    7.6177    0.0000 </r>
       <r>    8.0077    0.0000 </r>
       <r>    8.1884    0.0000 </r>
       <r>    8.9087    0.0000 </r>
       <r>    9.2423    0.0000 </r>
      </set>
      <set comment="kpoint 6">
       <r>   -4.7835    1.0000 </r>
       <r>   -4.0000    1.0000 </r>
       <r>   -4.0000    1.0000 </r>
       <r>   -3.3391    1.0000 </r>
       <r>   -0.4843    1.0000 </r>
       <r>    0.3024    1.0000 </r>
       <r>    0.3024    1.0000 </r>
       <r>    1.3553    1.0000 </r>
       <r>    1.5656    1.0000 </r>
       <r>    2.1458    1.0000 </r>
       <r>    2.1458    1.0000 </r>
       <r>    2.8305    1.0000 </r>
       <r>    4.0148    1.0000 </r>
       <r>    4.0417    1.0000 </r>
       <r>    4.0417    1.0000 </r>
       <r>    4.9860    1.0000 </r>
       <r>    7.7532    0.0000 </r>
       <r>    8.7356    0.0000 </r>
       <r>    9.0260    0.0000 </r>
       <r>    9.0267    0.0000 </r>
       <r>    9.5044    0.0000 </r>
      </set>
      <set comment="kpoint 7">
       <r>   -5.6148    1.0000 </r>
       <r>   -3.2196    1.0000 </r>
       <r>   -3.2196    1.0000 </r>
       <r>   -3.2196    1.0000 </r>
       <r>   -0.5980    1.0000 </r>
       <r>   -0.5980    1.0000 </r>
       <r>   -0.5980    1.0000 </r>
       <r>    2.1455    1.0000 </r>
       <r>    2.1455    1.0000 </r>
       <r>    2.1455    1.0000 </r>
       <r>    2.8230    1.0000 </r>
       <r>    3.4026    1.0000 </r>
       <r>    3.4026    1.0000 </r>
       <r>    3.4026    1.0000 </r>
       <r>    5.2542    1.0000 </r>
       <r>    5.2542    1.0000 </r>
       <r>    7.0728    0.0000 </r>
       <r>    7.0728    0.0000 </r>
       <r>    7.0728    0.0000 </r>
       <r>    8.0580    0.0000 </r>
       <r>    9.2069    0.0000 </r>
      </set>
      <set comment="kpoint 8">
       <r>   -5.1114    1.0000 </r>
       <r>   -4.2958    1.0000 </r>
       <r>   -3.0630    1.0000 </r>
       <r>   -3.0630    1.0000 </r>
       <r>   -0.9073    1.0000 </r>
       <r>   -0.9073    1.0000 </r>
       <r>    0.5218    1.0000 </r>
       <r>    1.6187    1.0000 </r>
       <r>    1.9959    1.0000 </r>
       <r>    1.9959    1.0000 </r>
       <r>    3.2070    1.0000 </r>
       <r>    3.3608    1.0000 </r>
       <r>    3.3608    1.0000 </r>
       <r>    3.8349    1.0000 </r>
       <r>    4.5012    1.0000 </r>
       <r>    4.5586    1.0000 </r>
       <r>    7.6173    0.0000 </r>
       <r>    8.1854    0.0000 </r>
       <r>    8.1854    0.0000 </r>
       <r>    8.2190    0.0000 </r>
       <r>    9.2308    0.0000 </r>
      </set>
      <set comment="kpoint 9">
       <r>   -4.6430    1.0000 </r>
       <r>   -3.9133    1.0000 </r>
       <r>   -3.9133    1.0000 </r>
       <r>   -3.4119    1.0000 </r>
       <r>   -0.8722    1.0000 </r>
       <r>   -0.3167    1.0000 </r>
       <r>   -0.3167    1.0000 </r>
       <r>    0.5381    1.0000 </r>
       <r>    2.3977    1.0000 </r>
       <r>    2.9303    1.0000 </r>
       <r>    2.9303    1.0000 </r>
       <r>    3.7867    1.0000 </r>
       <r>    4.1167    1.0000 </r>
       <r>    4.1344    1.0000 </r>
       <r>    4.1344    1.0000 </r>
       <r>    4.9217    1.0000 </r>
       <r>    7.9006    0.0000 </r>
       <r>    8.2591    0.0000 </r>
       <r>    8.5983    0.0000 </r>
       <r>    8.5984    0.0000 </r>
       <r>    9.1303    0.0000 </r>
      </set>
      <set comment="kpoint 10">
       <r>   -4.2527    1.0000 </r>
       <r>   -3.7468    1.0000 </r>
       <r>   -3.7468    1.0000 </r>
       <r>   -3.7468    1.0000 </r>
       <r>   -0.9939    1.0000 </r>
       <r>   -0.9939    1.0000 </r>
       <r>   -0.9939    1.0000 </r>
       <r>   -0.4419    1.0000 </r>
       <r>    3.8547    1.0000 </r>
       <r>    3.8547    1.0000 </r>
       <r>    3.8547    1.0000 </r>
       <r>    4.3857    1.0000 </r>
       <r>    4.3857    1.0000 </r>
       <r>    4.3857    1.0000 </r>
       <r>    4.7049    1.0000 </r>
       <r>    4.7049    1.0000 </r>
       <r>    7.4599    0.0000 </r>
       <r>    7.9903    0.0000 </r>
       <r>    7.9903    0.0000 </r>
       <r>    7.9903    0.0000 </r>
       <r>    9.1610    0.0000 </r>
      </set>
     </set>
    </set>
   </array>
  </eigenvalues>
  <separator name="orbital magnetization" >
   <v name="MAGDIPOLOUT">      0.00000000      0.00000000      0.00000000</v>
  </separator>
  <dos>
   <i name="efermi">      5.84000000 </i>
   <total>
    <array>
     <dimension dim="1">gridpoints</dimension>
     <dimension dim="2">spin</dimension>
     <field>energy</field>
     <field>total</field>
     <field>integrated</field>
     <set>
      <set comment="spin 1">
       <r>   -12.0000     0.0000     0.0000 </r>
       <r>   -11.9900     0.0000     0.0000 </r>
       <r>   -11.9800     0.0000     0.0000 </r>
       <r>   -11.9700     0.0000     0.0000 </r>
       <r>   -11.9600     0.0000     0.0000 </r>
       <r>   -11.9500     0.0000     0.0000 </r>
       <r>   -11.9400     0.0000     0.0000 </r>
       <r>   -11.9300     0.0000     0.0000 </r>
       <r>   -11.9200     0.0000     0.0000 </r>
       <r>   -11.9100     0.0000     0.0000 </r>
       <r>   -11.9000     0.0000     0.0000 </r>
       <r>   -11.8900     0.0000     0.0000 </r>
       <r>   -11.8800     0.0000     0.0000 </r>
       <r>   -11.8700     0.0000     0.0000 </r>
       <r>   -11.8600     0.0000     0.0000 </r>
       <r>   -11.8500     0.0000     0.0000 </r>
       <r>   -11.8400     0.0000     0.0000 </r>
       <r>   -11.8300     0.0000     0.0000 </r>
       <r>   -11.8200     0.0000     0.0000 </r>
       <r>   -11.8100     0.0000     0.0000 </r>
       <r>   -11.8000     0.0000     0.0000 </r>
       <r>   -11.7900     0.0000     0.0000 </r>
       <r>   -11.7800     0.0000     0.0000 </r>
       <r>   -11.7700     0.0000     0.0000 </r>
       <r>   -11.7600     0.0000     0.0000 </r>
       <r>   -11.7500     0.0000     0.0000 </r>
       <r>   -11.7400     0.0000     0.0000 </r>
       <r>   -11.7300     0.0000     0.0000 </r>
       <r>   -11.7200     0.0000     0.0000 </r>
       <r>   -11.7100     0.0000     0.0000 </r>
       <r>   -11.7000     0.0000     0.0000 </r>
       <r>   -11.6900     0.0000     0.0000 </r>
       <r>   -11.6800     0.0000     0.0000 </r>
       <r>   -11.6700     0.0000     0.0000 </r>
       <r>   -11.6600     0.0000     0.0000 </r>
       <r>   -11.6500     0.0000     0.0000 </r>
       <r>   -11.6400     0.0000     0.0000 </r>
       <r>   -11.6300     0.0000     0.0000 </r>
       <r>   -11.6200     0.0000     0.0000 </r>
       <r>   -11.6100     0.0000     0.0000 </r>
       <r>   -11.6000     0.0000     0.0000 </r>
       <r>   -11.5900     0.0000     0.0000 </r>
       <r>   -11.5800     0.0000     0.0000 </r>
       <r>   -11.5700     0.0000     0.0000 </r>
       <r>   -11.5600     0.0000     0.0000 </r>
       <r>   -11.5500     0.0000     0.0000 </r>
       <r>   -11.5400     0.0000     0.0000 </r>
       <r>   -11.5300     0.0000     0.0000 </r>
       <r>   -11.5200     0.0000     0.0000 </r>
       <r>   -11.5100     0.0000     0.0000 </r>
       <r>   -11.5000     0.0000     0.0000 </r>
       <r>   -11.4900     0.0000     0.0000 </r>
       <r>   -11.4800     0.0000     0.0000 </r>
       <r>   -11.4700     0.0000     0.0000 </r>
       <r>   -11.4600     0.0000     0.0000 </r>
       <r>   -11.4500     0.0000     0.0000 </r>
       <r>   -11.4400     0.0000     0.0000 </r>
       <r>   -11.4300     0.0000     0.0000 </r>
       <r>   -11.4200     0.0000     0.0000 </r>
       <r>   -11.4100     0.0000     0.0000 </r>
       <r>   -11.4000     0.0000     0.0000 </r>
       <r>   -11.3900     0.0000     0.0000 </r>
       <r>   -11.3800     0.0000     0.0000 </r>
       <r>   -11.3700     0.0000     0.0000 </r>
       <r>   -11.3600     0.0000     0.0000 </r>
       <r>   -11.3500     0.0000     0.0000 </r>
       <r>   -11.3400     0.0000     0.0000 </r>
       <r>   -11.3300     0.0000     0.0000 </r>
       <r>   -11.3200     0.0000     0.0000 </r>
       <r>   -11.3100     0.0000     0.0000 </r>
       <r>   -11.3000     0.0000     0.0000 </r>
       <r>   -11.2900     0.0000     0.0000 </r>
       <r>   -11.2800     0.0000     0.0000 </r>
       <r>   -11.2700     0.0000     0.0000 </r>
       <r>   -11.2600     0.0000     0.0000 </r>
       <r>   -11.2500     0.0000     0.0000 </r>
       <r>   -11.2400     0.0000     0.0000 </r>
       <r>   -11.2300     0.0000     0.0000 </r>
       <r>   -11.2200     0.0000     0.0000 </r>
       <r>   -11.2100     0.0000     0.0000 </r>
       <r>   -11.2000     0.0000     0.0000 </r>
       <r>   -11.1900     0.0000     0.0000 </r>
       <r>   -11.1800     0.0000     0.0000 </r>
       <r>   -11.1700     0.0000     0.0000 </r>
       <r>   -11.1600     0.0000     0.0000 </r>
       <r>   -11.1500     0.0000     0.0000 </r>
       <r>   -11.1400     0.0000     0.0000 </r>
       <r>   -11.1300     0.0000     0.0000 </r>
       <r>   -11.1200     0.0000     0.0000 </r>
       <r>   -11.1100     0.0000     0.0000 </r>
       <r>   -11.1000     0.0000     0.0000 </r>
       <r>   -11.0900     0.0000     0.0000 </r>
       <r>   -11.0800     0.0000     0.0000 </r>
       <r>   -11.0700     0.0000     0.0000 </r>
       <r>   -11.0600     0.0000     0.0000 </r>
       <r>   -11.0500     0.0000     0.0000 </r>
       <r>   -11.0400     0.0000     0.0000 </r>
       <r>   -11.0300     0.0000     0.0000 </r>
       <r>   -11.0200     0.0000     0.0000 </r>
       <r>   -11.0100     0.0000     0.0000 </r>
       <r>   -11.0000     0.0000     0.0000 </r>
       <r>   -10.9900     0.0000     0.0000 </r>
       <r>   -10.9800     0.0000     0.0000 </r>
       <r>   -10.9700     0.0000     0.0000 </r>
       <r>   -10.9600     0.0000     0.0000 </r>
       <r>   -10.9500     0.0000     0.0000 </r>
       <r>   -10.9400     0.0000     0.0000 </r>
       <r>   -10.9300     0.0000     0.0000 </r>
       <r>   -10.9200     0.0000     0.0000 </r>
       <r>   -10.9100     0.0000     0.0000 </r>
       <r>   -10.9000     0.0000     0.0000 </r>
       <r>   -10.8900     0.0000     0.0000 </r>
       <r>   -10.8800     0.0000     0.0000 </r>
       <r>   -10.8700     0.0000     0.0000 </r>
       <r>   -10.8600     0.0000     0.0000 </r>
       <r>   -10.8500     0.0000     0.0000 </r>
       <r>   -10.8400     0.0000     0.0000 </r>
       <r>   -10.8300     0.0000     0.0000 </r>
       <r>   -10.8200     0.0000     0.0000 </r>
       <r>   -10.8100     0.0000     0.0000 </r>
       <r>   -10.8000     0.0000     0.0000 </r>
       <r>   -10.7900     0.0000     0.0000 </r>
       <r>   -10.7800     0.0000     0.0000 </r>
       <r>   -10.7700     0.0000     0.0000 </r>
       <r>   -10.7600     0.0000     0.0000 </r>
       <r>   -10.7500     0.0000     0.0000 </r>
       <r>   -10.7400     0.0000     0.0000 </r>
       <r>   -10.7300     0.0000     0.0000 </r>
       <r>   -10.7200     0.0000     0.0000 </r>
       <r>   -10.7100     0.0000     0.0000 </r>
       <r>   -10.7000     0.0000     0.0000 </r>
       <r>   -10.6900     0.0000     0.0000 </r>
       <r>   -10.6800     0.0000     0.0000 </r>
       <r>   -10.6700     0.0000     0.0000 </r>
       <r>   -10.6600     0.0000     0.0000 </r>
       <r>   -10.6500     0.0000     0.0000 </r>
       <r>   -10.6400     0.0000     0.0000 </r>
       <r>   -10.6300     0.0000     0.0000 </r>
       <r>   -10.6200     0.0000     0.0000 </r>
       <r>   -10.6100     0.0000     0.0000 </r>
       <r>   -10.6000     0.0000     0.0000 </r>
       <r>   -10.5900     0.0000     0.0000 </r>
       <r>   -10.5800     0.0000     0.0000 </r>
       <r>   -10.5700     0.0000     0.0000 </r>
       <r>   -10.5600     0.0000     0.0000 </r>
       <r>   -10.5500     0.0000     0.0000 </r>
       <r>   -10.5400     0.0000     0.0000 </r>
       <r>   -10.5300     0.0000     0.0000 </r>
       <r>   -10.5200     0.0000     0.0000 </r>
       <r>   -10.5100     0.0000     0.0000 </r>
       <r>   -10.5000     0.0000     0.0000 </r>
       <r>   -10.4900     0.0000     0.0000 </r>
       <r>   -10.4800     0.0000     0.0000 </r>
       <r>   -10.4700     0.0000     0.0000 </r>
       <r>   -10.4600     0.0000     0.0000 </r>
       <r>   -10.4500     0.0000     0.0000 </r>
       <r>   -10.4400     0.0000     0.0000 </r>
       <r>   -10.4300     0.0000     0.0000 </r>
       <r>   -10.4200     0.0000     0.0000 </r>
       <r>   -10.4100     0.0000     0.0000 </r>
       <r>   -10.4000     0.0000     0.0000 </r>
       <r>   -10.3900     0.0000     0.0000 </r>
       <r>   -10.3800     0.0000     0.0000 </r>
       <r>   -10.3700     0.0000     0.0000 </r>
       <r>   -10.3600     0.0000     0.0000 </r>
       <r>   -10.3500     0.0000     0.0000 </r>
       <r>   -10.3400     0.0000     0.0000 </r>
       <r>   -10.3300     0.0000     0.0000 </r>
       <r>   -10.3200     0.0000     0.0000 </r>
       <r>   -10.3100     0.0000     0.0000 </r>
       <r>   -10.3000     0.0000     0.0000 </r>
       <r>   -10.2900     0.0000     0.0000 </r>
       <r>   -10.2800     0.0000     0.0000 </r>
       <r>   -10.2700     0.0000     0.0000 </r>
       <r>   -10.2600     0.0000     0.0000 </r>
       <r>   -10.2500     0.0000     0.0000 </r>
       <r>   -10.2400     0.0000     0.0000 </r>
       <r>   -10.2300     0.0000     0.0000 </r>
       <r>   -10.2200     0.0000     0.0000 </r>
       <r>   -10.2100     0.0000     0.0000 </r>
       <r>   -10.2000     0.0000     0.0000 </r>
       <r>   -10.1900     0.0000     0.0000 </r>
       <r>   -10.1800     0.0000     0.0000 </r>
       <r>   -10.1700     0.0000     0.0000 </r>
       <r>   -10.1600     0.0000     0.0000 </r>
       <r>   -10.1500     0.0000     0.0000 </r>
       <r>   -10.1400     0.0000     0.0000 </r>
       <r>   -10.1300     0.0000     0.0000 </r>
       <r>   -10.1200     0.0000     0.0000 </r>
       <r>   -10.1100     0.0000     0.0000 </r>
       <r>   -10.1000     0.0000     0.0000 </r>
       <r>   -10.0900     0.0000     0.0000 </r>
       <r>   -10.0800     0.0000     0.0000 </r>
       <r>   -10.0700     0.0000     0.0000 </r>
       <r>   -10.0600     0.0000     0.0000 </r>
       <r>   -10.0500     0.0000     0.0000 </r>
       <r>   -10.0400     0.0000     0.0000 </r>
       <r>   -10.0300     0.0000     0.0000 </r>
       <r>   -10.0200     0.0000     0.0000 </r>
       <r>   -10.0100     0.0000     0.0000 </r>
       <r>   -10.0000     0.0000     0.0000 </r>
       <r>    -9.9900     0.0000     0.0000 </r>
       <r>    -9.9800     0.0000     0.0000 </r>
       <r>    -9.9700     0.0000     0.0000 </r>
       <r>    -9.9600     0.0000     0.0000 </r>
       <r>    -9.9500     0.0000     0.0000 </r>
       <r>    -9.9400     0.0000     0.0000 </r>
       <r>    -9.9300     0.0000     0.0000 </r>
       <r>    -9.9200     0.0000     0.0000 </r>
       <r>    -9.9100     0.0000     0.0000 </r>
       <r>    -9.9000     0.0000     0.0000 </r>
       <r>    -9.8900     0.0000     0.0000 </r>
       <r>    -9.8800     0.0000     0.0000 </r>
       <r>    -9.8700     0.0000     0.0000 </r>
       <r>    -9.8600     0.0000     0.0000 </r>
       <r>    -9.8500     0.0000     0.0000 </r>
       <r>    -9.8400     0.0000     0.0000 </r>
       <r>    -9.8300     0.0000     0.0000 </r>
       <r>    -9.8200     0.0000     0.0000 </r>
       <r>    -9.8100     0.0000     0.0000 </r>
       <r>    -9.8000     0.0000     0.0000 </r>
       <r>    -9.7900     0.0000     0.0000 </r>
       <r>    -9.7800     0.0000     0.0000 </r>
       <r>    -9.7700     0.0000     0.0000 </r>
       <r>    -9.7600     0.0000     0.0000 </r>
       <r>    -9.7500     0.0000     0.0000 </r>
       <r>    -9.7400     0.0000     0.0000 </r>
       <r>    -9.7300     0.0000     0.0000 </r>
       <r>    -9.7200     0.0000     0.0000 </r>
       <r>    -9.7100     0.0000     0.0000 </r>
       <r>    -9.7000     0.0000     0.0000 </r>
       <r>    -9.6900     0.0000     0.0000 </r>
       <r>    -9.6800     0.0000     0.0000 </r>
       <r>    -9.6700     0.0000     0.0000 </r>
       <r>    -9.6600     0.0000     0.0000 </r>
       <r>    -9.6500     0.0000     0.0000 </r>
       <r>    -9.6400     0.0000     0.0000 </r>
       <r>    -9.6300     0.0000     0.0000 </r>
       <r>    -9.6200     0.0000     0.0000 </r>
       <r>    -9.6100     0.0000     0.0000 </r>
       <r>    -9.6000     0.0000     0.0000 </r>
       <r>    -9.5900     0.0000     0.0000 </r>
       <r>    -9.5800     0.0000     0.0000 </r>
       <r>    -9.5700     0.0000     0.0000 </r>
       <r>    -9.5600     0.0000     0.0000 </r>
       <r>    -9.5500     0.0000     0.0000 </r>
       <r>    -9.5400     0.0000     0.0000 </r>
       <r>    -9.5300     0.0000     0.0000 </r>
       <r>    -9.5200     0.0000     0.0000 </r>
       <r>    -9.5100     0.0000     0.0000 </r>
       <r>    -9.5000     0.0000     0.0000 </r>
       <r>    -9.4900     0.0000     0.0000 </r>
       <r>    -9.4800     0.0000     0.0000 </r>
       <r>    -9.4700     0.0000     0.0000 </r>
       <r>    -9.4600     0.0000     0.0000 </r>
       <r>    -9.4500     0.0000     0.0000 </r>
       <r>    -9.4400     0.0000     0.0000 </r>
       <r>    -9.4300     0.0000     0.0000 </r>
       <r>    -9.4200     0.0000     0.0000 </r>
       <r>    -9.4100     0.0000     0.0000 </r>
       <r>    -9.4000     0.0000     0.0000 </r>
       <r>    -9.3900     0.0000     0.0000 </r>
       <r>    -9.3800     0.0000     0.0000 </r>
       <r>    -9.3700     0.0000     0.0000 </r>
       <r>    -9.3600     0.0000     0.0000 </r>
       <r>    -9.3500     0.0000     0.0000 </r>
       <r>    -9.3400     0.0000     0.0000 </r>
       <r>    -9.3300     0.0000     0.0000 </r>
       <r>    -9.3200     0.0000     0.0000 </r>
       <r>    -9.3100     0.0000     0.0000 </r>
       <r>    -9.3000     0.0000     0.0000 </r>
       <r>    -9.2900     0.0000     0.0000 </r>
       <r>    -9.2800     0.0000     0.0000 </r>
       <r>    -9.2700     0.0000     0.0000 </r>
       <r>    -9.2600     0.0000     0.0000 </r>
       <r>    -9.2500     0.0000     0.0000 </r>
       <r>    -9.2400     0.0000     0.0000 </r>
       <r>    -9.2300     0.0000     0.0000 </r>
       <r>    -9.2200     0.0000     0.0000 </r>
       <r>    -9.2100     0.0000     0.0000 </r>
       <r>    -9.2000     0.0000     0.0000 </r>
       <r>    -9.1900     0.0000     0.0000 </r>
       <r>    -9.1800     0.0000     0.0000 </r>
       <r>    -9.1700     0.0000     0.0000 </r>
       <r>    -9.1600     0.0000     0.0000 </r>
       <r>    -9.1500     0.0000     0.0000 </r>
       <r>    -9.1400     0.0000     0.0000 </r>
       <r>    -9.1300     0.0000     0.0000 </r>
       <r>    -9.1200     0.0000     0.0000 </r>
       <r>    -9.1100     0.0000     0.0000 </r>
       <r>    -9.1000     0.0000     0.0000 </r>
       <r>    -9.0900     0.0000     0.0000 </r>
       <r>    -9.0800     0.0000     0.0000 </r>
       <r>    -9.0700     0.0000     0.0000 </r>
       <r>    -9.0600     0.0000     0.0000 </r>
       <r>    -9.0500     0.0000     0.0000 </r>
       <r>    -9.0400     0.0000     0.0000 </r>
       <r>    -9.0300     0.0000     0.0000 </r>
       <r>    -9.0200     0.0000     0.0000 </r>
       <r>    -9.0100     0.0000     0.0000 </r>
       <r>    -9.0000     0.0000     0.0000 </r>
       <r>    -8.9900     0.0000     0.0000 </r>
       <r>    -8.9800     0.0000     0.0000 </r>
       <r>    -8.9700     0.0000     0.0000 </r>
       <r>    -8.9600     0.0000     0.0000 </r>
       <r>    -8.9500     0.0000     0.0000 </r>
       <r>    -8.9400     0.0000     0.0000 </r>
       <r>    -8.9300     0.0000     0.0000 </r>
       <r>    -8.9200     0.0000     0.0000 </r>
       <r>    -8.9100     0.0000     0.0000 </r>
       <r>    -8.9000     0.0000     0.0000 </r>
       <r>    -8.8900     0.0000     0.0000 </r>
       <r>    -8.8800     0.0000     0.0000 </r>
       <r>    -8.8700     0.0000     0.0000 </r>
       <r>    -8.8600     0.0000     0.0000 </r>
       <r>    -8.8500     0.0000     0.0000 </r>
       <r>    -8.8400     0.0000     0.0000 </r>
       <r>    -8.8300     0.0000     0.0000 </r>
       <r>    -8.8200     0.0000     0.0000 </r>
       <r>    -8.8100     0.0000     0.0000 </r>
       <r>    -8.8000     0.0000     0.0000 </r>
       <r>    -8.7900     0.0000     0.0000 </r>
       <r>    -8.7800     0.0000     0.0000 </r>
       <r>    -8.7700     0.0000     0.0000 </r>
       <r>    -8.7600     0.0000     0.0000 </r>
       <r>    -8.7500     0.0000     0.0000 </r>
       <r>    -8.7400     0.0000     0.0000 </r>
       <r>    -8.7300     0.0000     0.0000 </r>
       <r>    -8.7200     0.0000     0.0000 </r>
       <r>    -8.7100     0.0000     0.0000 </r>
       <r>    -8.7000     0.0000     0.0000 </r>
       <r>    -8.6900     0.0000     0.0000 </r>
       <r>    -8.6800     0.0000     0.0000 </r>
       <r>    -8.6700     0.0000     0.0000 </r>
       <r>    -8.6600     0.0000     0.0000 </r>
       <r>    -8.6500     0.0000     0.0000 </r>
       <r>    -8.6400     0.0000     0.0000 </r>
       <r>    -8.6300     0.0000     0.0000 </r>
       <r>    -8.6200     0.0000     0.0000 </r>
       <r>    -8.6100     0.0000     0.0000 </r>
       <r>    -8.6000     0.0000     0.0000 </r>
       <r>    -8.5900     0.0000     0.0000 </r>
       <r>    -8.5800     0.0000     0.0000 </r>
       <r>    -8.5700     0.0000     0.0000 </r>
       <r>    -8.5600     0.0000     0.0000 </r>
       <r>    -8.5500     0.0000     0.0000 </r>
       <r>    -8.5400     0.0000     0.0000 </r>
       <r>    -8.5300     0.0000     0.0000 </r>
       <r>    -8.5200     0.0000     0.0000 </r>
       <r>    -8.5100     0.0000     0.0000 </r>
       <r>    -8.5000     0.0000     0.0000 </r>
       <r>    -8.4900     0.0000     0.0000 </r>
       <r>    -8.4800     0.0000     0.0000 </r>
       <r>    -8.4700     0.0000     0.0000 </r>
       <r>    -8.4600     0.0000     0.0000 </r>
       <r>    -8.4500     0.0000     0.0000 </r>
       <r>    -8.4400     0.0000     0.0000 </r>
       <r>    -8.4300     0.0000     0.0000 </r>
       <r>    -8.4200     0.0000     0.0000 </r>
       <r>    -8.4100     0.0000     0.0000 </r>
       <r>    -8.4000     0.0000     0.0000 </r>
       <r>    -8.3900     0.0000     0.0000 </r>
       <r>    -8.3800     0.0000     0.0000 </r>
       <r>    -8.3700     0.0000     0.0000 </r>
       <r>    -8.3600     0.0000     0.0000 </r>
       <r>    -8.3500     0.0000     0.0000 </r>
       <r>    -8.3400     0.0000     0.0000 </r>
       <r>    -8.3300     0.0000     0.0000 </r>
       <r>    -8.3200     0.0000     0.0000 </r>
       <r>    -8.3100     0.0000     0.0000 </r>
       <r>    -8.3000     0.0000     0.0000 </r>
       <r>    -8.2900     0.0000     0.0000 </r>
       <r>    -8.2800     0.0000     0.0000 </r>
       <r>    -8.2700     0.0000     0.0000 </r>
       <r>    -8.2600     0.0000     0.0000 </r>
       <r>    -8.2500     0.0000     0.0000 </r>
       <r>    -8.2400     0.0000     0.0000 </r>
       <r>    -8.2300     0.0000     0.0000 </r>
       <r>    -8.2200     0.0000     0.0000 </r>
       <r>    -8.2100     0.0000     0.0000 </r>
       <r>    -8.2000     0.0000     0.0000 </r>
       <r>    -8.1900     0.0000     0.0000 </r>
       <r>    -8.1800     0.0000     0.0000 </r>
       <r>    -8.1700     0.0000     0.0000 </r>
       <r>    -8.1600     0.0000     0.0000 </r>
       <r>    -8.1500     0.0000     0.0000 </r>
       <r>    -8.1400     0.0000     0.0000 </r>
       <r>    -8.1300     0.0000     0.0000 </r>
       <r>    -8.1200     0.0000     0.0000 </r>
       <r>    -8.1100     0.0000     0.0000 </r>
       <r>    -8.1000     0.0000     0.0000 </r>
       <r>    -8.0900     0.0000     0.0000 </r>
       <r>    -8.0800     0.0000     0.0000 </r>
       <r>    -8.0700     0.0000     0.0000 </r>
       <r>    -8.0600     0.0000     0.0000 </r>
       <r>    -8.0500     0.0000     0.0000 </r>
       <r>    -8.0400     0.0000     0.0000 </r>
       <r>    -8.0300     0.0000     0.0000 </r>
       <r>    -8.0200     0.0000     0.0000 </r>
       <r>    -8.0100     0.0000     0.0000 </r>
       <r>    -8.0000     0.0000     0.0000 </r>
       <r>    -7.9900     0.0000     0.0000 </r>
       <r>    -7.9800     0.0000     0.0000 </r>
       <r>    -7.9700     0.0000     0.0000 </r>
       <r>    -7.9600     0.0000     0.0000 </r>
       <r>    -7.9500     0.0000     0.0000 </r>
       <r>    -7.9400     0.0000     0.0000 </r>
       <r>    -7.9300     0.0000     0.0000 </r>
       <r>    -7.9200     0.0000     0.0000 </r>
       <r>    -7.9100     0.0000     0.0000 </r>
       <r>    -7.9000     0.0000     0.0000 </r>
       <r>    -7.8900     0.0000     0.0000 </r>
       <r>    -7.8800     0.0000     0.0000 </r>
       <r>    -7.8700     0.0000     0.0000 </r>
       <r>    -7.8600     0.0000     0.0000 </r>
       <r>    -7.8500     0.0000     0.0000 </r>
       <r>    -7.8400     0.0000     0.0000 </r>
       <r>    -7.8300     0.0000     0.0000 </r>
       <r>    -7.8200     0.0000     0.0000 </r>
       <r>    -7.8100     0.0000     0.0000 </r>
       <r>    -7.8000     0.0000     0.0000 </r>
       <r>    -7.7900     0.0000     0.0000 </r>
       <r>    -7.7800     0.0000     0.0000 </r>
       <r>    -7.7700     0.0000     0.0000 </r>
       <r>    -7.7600     0.0000     0.0000 </r>
       <r>    -7.7500     0.0000     0.0000 </r>
       <r>    -7.7400     0.0000     0.0000 </r>
       <r>    -7.7300     0.0000     0.0000 </r>
       <r>    -7.7200     0.0000     0.0000 </r>
       <r>    -7.7100     0.0000     0.0000 </r>
       <r>    -7.7000     0.0000     0.0000 </r>
       <r>    -7.6900     0.0000     0.0000 </r>
       <r>    -7.6800     0.0000     0.0000 </r>
       <r>    -7.6700     0.0000     0.0000 </r>
       <r>    -7.6600     0.0000     0.0000 </r>
       <r>    -7.6500     0.0000     0.0000 </r>
       <r>    -7.6400     0.0000     0.0000 </r>
       <r>    -7.6300     0.0000     0.0000 </r>
       <r>    -7.6200     0.0000     0.0000 </r>
       <r>    -7.6100     0.0000     0.0000 </r>
       <r>    -7.6000     0.0000     0.0000 </r>
       <r>    -7.5900     0.0000     0.0000 </r>
       <r>    -7.5800     0.0000     0.0000 </r>
       <r>    -7.5700     0.0000     0.0000 </r>
       <r>    -7.5600     0.0000     0.0000 </r>
       <r>    -7.5500     0.0000     0.0000 </r>
       <r>    -7.5400     0.0000     0.0000 </r>
       <r>    -7.5300     0.0000     0.0000 </r>
       <r>    -7.5200     0.0000     0.0000 </r>
       <r>    -7.5100     0.0000     0.0000 </r>
       <r>    -7.5000     0.0000     0.0000 </r>
       <r>    -7.4900     0.0000     0.0000 </r>
       <r>    -7.4800     0.0000     0.0000 </r>
       <r>    -7.4700     0.0000     0.0000 </r>
       <r>    -7.4600     0.0000     0.0000 </r>
       <r>    -7.4500     0.0000     0.0000 </r>
       <r>    -7.4400     0.0000     0.0000 </r>
       <r>    -7.4300     0.0000     0.0000 </r>
       <r>    -7.4200     0.0000     0.0000 </r>
       <r>    -7.4100     0.0000     0.0000 </r>
       <r>    -7.4000     0.0000     0.0000 </r>
       <r>    -7.3900     0.0000     0.0000 </r>
       <r>    -7.3800     0.0000     0.0000 </r>
       <r>    -7.3700     0.0000     0.0000 </r>
       <r>    -7.3600     0.0000     0.0000 </r>
       <r>    -7.3500     0.0000     0.0000 </r>
       <r>    -7.3400     0.0000     0.0000 </r>
       <r>    -7.3300     0.0000     0.0000 </r>
       <r>    -7.3200     0.0000     0.0000 </r>
       <r>    -7.3100     0.0000     0.0000 </r>
       <r>    -7.3000     0.0000     0.0000 </r>
       <r>    -7.2900     0.0000     0.0000 </r>
       <r>    -7.2800     0.0000     0.0000 </r>
       <r>    -7.2700     0.0000     0.0000 </r>
       <r>    -7.2600     0.0000     0.0000 </r>
       <r>    -7.2500     0.0000     0.0000 </r>
       <r>    -7.2400     0.0000     0.0000 </r>
       <r>    -7.2300     0.0000     0.0000 </r>
       <r>    -7.2200     0.0000     0.0000 </r>
       <r>    -7.2100     0.0000     0.0000 </r>
       <r>    -7.2000     0.0000     0.0000 </r>
       <r>    -7.1900     0.0000     0.0000 </r>
       <r>    -7.1800     0.0000     0.0000 </r>
       <r>    -7.1700     0.0000     0.0000 </r>
       <r>    -7.1600     0.0000     0.0000 </r>
       <r>    -7.1500     0.0000     0.0000 </r>
       <r>    -7.1400     0.0000     0.0000 </r>
       <r>    -7.1300     0.0000     0.0000 </r>
       <r>    -7.1200     0.0000     0.0000 </r>
       <r>    -7.1100     0.0000     0.0000 </r>
       <r>    -7.1000     0.0000     0.0000 </r>
       <r>    -7.0900     0.0000     0.0000 </r>
       <r>    -7.0800     0.0000     0.0000 </r>
       <r>    -7.0700     0.0000     0.0000 </r>
       <r>    -7.0600     0.0000     0.0000 </r>
       <r>    -7.0500     0.0000     0.0000 </r>
       <r>    -7.0400     0.0000     0.0000 </r>
       <r>    -7.0300     0.0000     0.0000 </r>
       <r>    -7.0200     0.0000     0.0000 </r>
       <r>    -7.0100     0.0000     0.0000 </r>
       <r>    -7.0000     0.0000     0.0000 </r>
       <r>    -6.9900     0.0000     0.0000 </r>
       <r>    -6.9800     0.0000     0.0000 </r>
       <r>    -6.9700     0.0000     0.0000 </r>
       <r>    -6.9600     0.0000     0.0000 </r>
       <r>    -6.9500     0.0000     0.0000 </r>
       <r>    -6.9400     0.0000     0.0000 </r>
       <r>    -6.9300     0.0000     0.0000 </r>
       <r>    -6.9200     0.0000     0.0000 </r>
       <r>    -6.9100     0.0000     0.0000 </r>
       <r>    -6.9000     0.0000     0.0000 </r>
       <r>    -6.8900     0.0000     0.0000 </r>
       <r>    -6.8800     0.0000     0.0000 </r>
       <r>    -6.8700     0.0000     0.0000 </r>
       <r>    -6.8600     0.0000     0.0000 </r>
       <r>    -6.8500     0.0000     0.0000 </r>
       <r>    -6.8400     0.0000     0.0000 </r>
       <r>    -6.8300     0.0000     0.0000 </r>
       <r>    -6.8200     0.0000     0.0000 </r>
       <r>    -6.8100     0.0000     0.0000 </r>
       <r>    -6.8000     0.0000     0.0000 </r>
       <r>    -6.7900     0.0000     0.0000 </r>
       <r>    -6.7800     0.0000     0.0000 </r>
       <r>    -6.7700     0.0000     0.0000 </r>
       <r>    -6.7600     0.0000     0.0000 </r>
       <r>    -6.7500     0.0000     0.0000 </r>
       <r>    -6.7400     0.0000     0.0000 </r>
       <r>    -6.7300     0.0000     0.0000 </r>
       <r>    -6.7200     0.0000     0.0000 </r>
       <r>    -6.7100     0.0000     0.0000 </r>
       <r>    -6.7000     0.0000     0.0000 </r>
       <r>    -6.6900     0.0000     0.0000 </r>
       <r>    -6.6800     0.0000     0.0000 </r>
       <r>    -6.6700     0.0000     0.0000 </r>
       <r>    -6.6600     0.0000     0.0000 </r>
       <r>    -6.6500     0.0000     0.0000 </r>
       <r>    -6.6400     0.0000     0.0000 </r>
       <r>    -6.6300     0.0000     0.0000 </r>
       <r>    -6.6200     0.0000     0.0000 </r>
       <r>    -6.6100     0.0000     0.0000 </r>
       <r>    -6.6000     0.0000     0.0000 </r>
       <r>    -6.5900     0.0000     0.0000 </r>
       <r>    -6.5800     0.0000     0.0000 </r>
       <r>    -6.5700     0.0000     0.0000 </r>
       <r>    -6.5600     0.0000     0.0000 </r>
       <r>    -6.5500     0.0000     0.0000 </r>
       <r>    -6.5400     0.0000     0.0000 </r>
       <r>    -6.5300     0.0000     0.0000 </r>
       <r>    -6.5200     0.0000     0.0000 </r>
       <r>    -6.5100     0.0000     0.0000 </r>
       <r>    -6.5000     0.0000     0.0000 </r>
       <r>    -6.4900     0.0000     0.0000 </r>
       <r>    -6.4800     0.0000     0.0000 </r>
       <r>    -6.4700     0.0000     0.0000 </r>
       <r>    -6.4600     0.0000     0.0000 </r>
       <r>    -6.4500     0.0000     0.0000 </r>
       <r>    -6.4400     0.0000     0.0000 </r>
       <r>    -6.4300     0.0000     0.0000 </r>
       <r>    -6.4200     0.0000     0.0000 </r>
       <r>    -6.4100     0.0000     0.0000 </r>
       <r>    -6.4000     0.0000     0.0000 </r>
       <r>    -6.3900     0.0000     0.0000 </r>
       <r>    -6.3800     0.0000     0.0000 </r>
       <r>    -6.3700     0.0000     0.0000 </r>
       <r>    -6.3600     0.0000     0.0000 </r>
       <r>    -6.3500     0.0000     0.0000 </r>
       <r>    -6.3400     0.0000     0.0000 </r>
       <r>    -6.3300     0.0000     0.0000 </r>
       <r>    -6.3200     0.0000     0.0000 </r>
       <r>    -6.3100     0.0000     0.0000 </r>
       <r>    -6.3000     0.0000     0.0000 </r>
       <r>    -6.2900     0.0000     0.0000 </r>
       <r>    -6.2800     0.0000     0.0000 </r>
       <r>    -6.2700     0.0000     0.0000 </r>
       <r>    -6.2600     0.0000     0.0000 </r>
       <r>    -6.2500     0.0000     0.0000 </r>
       <r>    -6.2400     0.0000     0.0000 </r>
       <r>    -6.2300     0.0000     0.0000 </r>
       <r>    -6.2200     0.0000     0.0000 </r>
       <r>    -6.2100     0.0000     0.0000 </r>
       <r>    -6.2000     0.0000     0.0000 </r>
       <r>    -6.1900     0.0000     0.0000 </r>
       <r>    -6.1800     0.0000     0.0000 </r>
       <r>    -6.1700     0.0000     0.0000 </r>
       <r>    -6.1600     0.0000     0.0000 </r>
       <r>    -6.1500     0.0000     0.0000 </r>
       <r>    -6.1400     0.0000     0.0000 </r>
       <r>    -6.1300     0.0001     0.0000 </r>
       <r>    -6.1200     0.0018     0.0000 </r>
       <r>    -6.1100     0.0059     0.0000 </r>
       <r>    -6.1000     0.0125     0.0001 </r>
       <r>    -6.0900     0.0215     0.0003 </r>
       <r>    -6.0800     0.0329     0.0006 </r>
       <r>    -6.0700     0.0467     0.0010 </r>
       <r>    -6.0600     0.0629     0.0015 </r>
       <r>    -6.0500     0.0816     0.0022 </r>
       <r>    -6.0400     0.1027     0.0032 </r>
       <r>    -6.0300     0.1261     0.0043 </r>
       <r>    -6.0200     0.1520     0.0057 </r>
       <r>    -6.0100     0.1804     0.0073 </r>
       <r>    -6.0000     0.2111     0.0093 </r>
       <r>    -5.9900     0.2443     0.0116 </r>
       <r>    -5.9800     0.2798     0.0142 </r>
       <r>    -5.9700     0.3178     0.0172 </r>
       <r>    -5.9600     0.3582     0.0206 </r>
       <r>    -5.9500     0.4004     0.0244 </r>
       <r>    -5.9400     0.4405     0.0286 </r>
       <r>    -5.9300     0.4782     0.0332 </r>
       <r>    -5.9200     0.5134     0.0381 </r>
       <r>    -5.9100     0.5461     0.0434 </r>
       <r>    -5.9000     0.5764     0.0490 </r>
       <r>    -5.8900     0.6042     0.0549 </r>
       <r>    -5.8800     0.6295     0.0611 </r>
       <r>    -5.8700     0.6524     0.0675 </r>
       <r>    -5.8600     0.6727     0.0741 </r>
       <r>    -5.8500     0.6907     0.0810 </r>
       <r>    -5.8400     0.7061     0.0879 </r>
       <r>    -5.8300     0.7191     0.0951 </r>
       <r>    -5.8200     0.7296     0.1023 </r>
       <r>    -5.8100     0.7376     0.1097 </r>
       <r>    -5.8000     0.7432     0.1171 </r>
       <r>    -5.7900     0.7463     0.1245 </r>
       <r>    -5.7800     0.7470     0.1320 </r>
       <r>    -5.7700     0.7478     0.1395 </r>
       <r>    -5.7600     0.7495     0.1469 </r>
       <r>    -5.7500     0.7520     0.1544 </r>
       <r>    -5.7400     0.7555     0.1620 </r>
       <r>    -5.7300     0.7599     0.1696 </r>
       <r>    -5.7200     0.7652     0.1772 </r>
       <r>    -5.7100     0.7714     0.1849 </r>
       <r>    -5.7000     0.7784     0.1926 </r>
       <r>    -5.6900     0.7864     0.2004 </r>
       <r>    -5.6800     0.7953     0.2083 </r>
       <r>    -5.6700     0.8050     0.2163 </r>
       <r>    -5.6600     0.8157     0.2245 </r>
       <r>    -5.6500     0.8273     0.2327 </r>
       <r>    -5.6400     0.8397     0.2410 </r>
       <r>    -5.6300     0.8531     0.2495 </r>
       <r>    -5.6200     0.8673     0.2581 </r>
       <r>    -5.6100     0.8824     0.2668 </r>
       <r>    -5.6000     0.8977     0.2757 </r>
       <r>    -5.5900     0.9131     0.2848 </r>
       <r>    -5.5800     0.9286     0.2940 </r>
       <r>    -5.5700     0.9442     0.3033 </r>
       <r>    -5.5600     0.9600     0.3129 </r>
       <r>    -5.5500     0.9758     0.3225 </r>
       <r>    -5.5400     0.9918     0.3324 </r>
       <r>    -5.5300     1.0078     0.3424 </r>
       <r>    -5.5200     1.0240     0.3525 </r>
       <r>    -5.5100     1.0403     0.3629 </r>
       <r>    -5.5000     1.0567     0.3733 </r>
       <r>    -5.4900     1.0733     0.3840 </r>
       <r>    -5.4800     1.0899     0.3948 </r>
       <r>    -5.4700     1.1067     0.4058 </r>
       <r>    -5.4600     1.1235     0.4169 </r>
       <r>    -5.4500     1.1405     0.4283 </r>
       <r>    -5.4400     1.1576     0.4397 </r>
       <r>    -5.4300     1.2220     0.4516 </r>
       <r>    -5.4200     1.3069     0.4642 </r>
       <r>    -5.4100     1.3891     0.4777 </r>
       <r>    -5.4000     1.4687     0.4920 </r>
       <r>    -5.3900     1.5456     0.5071 </r>
       <r>    -5.3800     1.6198     0.5229 </r>
       <r>    -5.3700     1.6913     0.5395 </r>
       <r>    -5.3600     1.7602     0.5567 </r>
       <r>    -5.3500     1.8263     0.5746 </r>
       <r>    -5.3400     1.8898     0.5932 </r>
       <r>    -5.3300     1.9506     0.6124 </r>
       <r>    -5.3200     2.0088     0.6322 </r>
       <r>    -5.3100     2.0642     0.6526 </r>
       <r>    -5.3000     2.1170     0.6735 </r>
       <r>    -5.2900     2.1671     0.6949 </r>
       <r>    -5.2800     2.2145     0.7168 </r>
       <r>    -5.2700     2.2633     0.7392 </r>
       <r>    -5.2600     2.2131     0.7616 </r>
       <r>    -5.2500     2.1639     0.7835 </r>
       <r>    -5.2400     2.1159     0.8049 </r>
       <r>    -5.2300     2.0689     0.8258 </r>
       <r>    -5.2200     2.0230     0.8463 </r>
       <r>    -5.2100     1.9781     0.8663 </r>
       <r>    -5.2000     1.9344     0.8858 </r>
       <r>    -5.1900     1.8917     0.9050 </r>
       <r>    -5.1800     1.8501     0.9237 </r>
       <r>    -5.1700     1.8096     0.9420 </r>
       <r>    -5.1600     1.7702     0.9599 </r>
       <r>    -5.1500     1.7319     0.9774 </r>
       <r>    -5.1400     1.6947     0.9945 </r>
       <r>    -5.1300     1.6585     1.0113 </r>
       <r>    -5.1200     1.6234     1.0277 </r>
       <r>    -5.1100     1.5939     1.0438 </r>
       <r>    -5.1000     1.5927     1.0597 </r>
       <r>    -5.0900     1.5913     1.0756 </r>
       <r>    -5.0800     1.5896     1.0915 </r>
       <r>    -5.0700     1.5876     1.1074 </r>
       <r>    -5.0600     1.5854     1.1233 </r>
       <r>    -5.0500     1.5830     1.1391 </r>
       <r>    -5.0400     1.5802     1.1549 </r>
       <r>    -5.0300     1.5773     1.1707 </r>
       <r>    -5.0200     1.5740     1.1865 </r>
       <r>    -5.0100     1.5705     1.2022 </r>
       <r>    -5.0000     1.5668     1.2179 </r>
       <r>    -4.9900     1.5628     1.2335 </r>
       <r>    -4.9800     1.5585     1.2491 </r>
       <r>    -4.9700     1.5540     1.2647 </r>
       <r>    -4.9600     1.5492     1.2802 </r>
       <r>    -4.9500     1.5442     1.2957 </r>
       <r>    -4.9400     1.5389     1.3111 </r>
       <r>    -4.9300     1.5334     1.3265 </r>
       <r>    -4.9200     1.5276     1.3418 </r>
       <r>    -4.9100     1.5215     1.3570 </r>
       <r>    -4.9000     1.5152     1.3722 </r>
       <r>    -4.8900     1.5086     1.3873 </r>
       <r>    -4.8800     1.5018     1.4024 </r>
       <r>    -4.8700     1.4947     1.4173 </r>
       <r>    -4.8600     1.4873     1.4323 </r>
       <r>    -4.8500     1.4797     1.4471 </r>
       <r>    -4.8400     1.4719     1.4618 </r>
       <r>    -4.8300     1.4638     1.4765 </r>
       <r>    -4.8200     1.4554     1.4911 </r>
       <r>    -4.8100     1.4467     1.5056 </r>
       <r>    -4.8000     1.4379     1.5201 </r>
       <r>    -4.7900     1.4287     1.5344 </r>
       <r>    -4.7800     2.0820     1.5510 </r>
       <r>    -4.7700     2.0157     1.5715 </r>
       <r>    -4.7600     1.9504     1.5913 </r>
       <r>    -4.7500     1.8860     1.6105 </r>
       <r>    -4.7400     1.8225     1.6290 </r>
       <r>    -4.7300     1.7600     1.6470 </r>
       <r>    -4.7200     1.6984     1.6642 </r>
       <r>    -4.7100     1.6377     1.6809 </r>
       <r>    -4.7000     1.5780     1.6970 </r>
       <r>    -4.6900     1.5192     1.7125 </r>
       <r>    -4.6800     1.4614     1.7274 </r>
       <r>    -4.6700     1.4045     1.7417 </r>
       <r>    -4.6600     1.3485     1.7555 </r>
       <r>    -4.6500     1.2935     1.7687 </r>
       <r>    -4.6400     0.8537     1.7802 </r>
       <r>    -4.6300     0.8345     1.7886 </r>
       <r>    -4.6200     0.8154     1.7969 </r>
       <r>    -4.6100     0.7965     1.8049 </r>
       <r>    -4.6000     0.7778     1.8128 </r>
       <r>    -4.5900     0.7593     1.8205 </r>
       <r>    -4.5800     0.7667     1.8280 </r>
       <r>    -4.5700     0.8375     1.8361 </r>
       <r>    -4.5600     0.9100     1.8448 </r>
       <r>    -4.5500     0.9842     1.8543 </r>
       <r>    -4.5400     1.0602     1.8645 </r>
       <r>    -4.5300     1.1380     1.8755 </r>
       <r>    -4.5200     1.2174     1.8873 </r>
       <r>    -4.5100     1.2986     1.8998 </r>
       <r>    -4.5000     1.3816     1.9132 </r>
       <r>    -4.4900     1.4663     1.9275 </r>
       <r>    -4.4800     1.5527     1.9426 </r>
       <r>    -4.4700     1.6409     1.9585 </r>
       <r>    -4.4600     1.7308     1.9754 </r>
       <r>    -4.4500     1.8224     1.9932 </r>
       <r>    -4.4400     1.9158     2.0118 </r>
       <r>    -4.4300     2.0411     2.0316 </r>
       <r>    -4.4200     2.0613     2.0521 </r>
       <r>    -4.4100     2.0800     2.0728 </r>
       <r>    -4.4000     2.0971     2.0937 </r>
       <r>    -4.3900     2.1127     2.1148 </r>
       <r>    -4.3800     2.1268     2.1360 </r>
       <r>    -4.3700     2.1393     2.1573 </r>
       <r>    -4.3600     2.1503     2.1788 </r>
       <r>    -4.3500     2.1598     2.2003 </r>
       <r>    -4.3400     2.1677     2.2219 </r>
       <r>    -4.3300     2.1741     2.2437 </r>
       <r>    -4.3200     2.1789     2.2654 </r>
       <r>    -4.3100     2.1822     2.2872 </r>
       <r>    -4.3000     2.1840     2.3091 </r>
       <r>    -4.2900     2.1940     2.3309 </r>
       <r>    -4.2800     2.2106     2.3530 </r>
       <r>    -4.2700     2.2269     2.3751 </r>
       <r>    -4.2600     2.2429     2.3975 </r>
       <r>    -4.2500     2.0157     2.4353 </r>
       <r>    -4.2400     2.0429     2.4556 </r>
       <r>    -4.2300     2.0695     2.4762 </r>
       <r>    -4.2200     2.0955     2.4970 </r>
       <r>    -4.2100     2.1211     2.5181 </r>
       <r>    -4.2000     2.1461     2.5394 </r>
       <r>    -4.1900     2.1705     2.5610 </r>
       <r>    -4.1800     2.1944     2.5828 </r>
       <r>    -4.1700     2.2178     2.6049 </r>
       <r>    -4.1600     2.2407     2.6272 </r>
       <r>    -4.1500     2.2630     2.6497 </r>
       <r>    -4.1400     2.2848     2.6725 </r>
       <r>    -4.1300     2.3060     2.6954 </r>
       <r>    -4.1200     2.3267     2.7186 </r>
       <r>    -4.1100     2.3469     2.7419 </r>
       <r>    -4.1000     2.3666     2.7655 </r>
       <r>    -4.0900     2.3857     2.7893 </r>
       <r>    -4.0800     2.4043     2.8132 </r>
       <r>    -4.0700     2.4223     2.8374 </r>
       <r>    -4.0600     2.4398     2.8617 </r>
       <r>    -4.0500     2.4568     2.8861 </r>
       <r>    -4.0400     2.4732     2.9108 </r>
       <r>    -4.0300     2.4891     2.9356 </r>
       <r>    -4.0200     2.5045     2.9606 </r>
       <r>    -4.0100     2.5193     2.9857 </r>
       <r>    -4.0000     2.5336     3.0110 </r>
       <r>    -3.9900     4.7002     3.0581 </r>
       <r>    -3.9800     4.6509     3.1049 </r>
       <r>    -3.9700     4.6017     3.1512 </r>
       <r>    -3.9600     4.5528     3.1969 </r>
       <r>    -3.9500     4.5040     3.2422 </r>
       <r>    -3.9400     4.4554     3.2870 </r>
       <r>    -3.9300     4.4071     3.3313 </r>
       <r>    -3.9200     4.3589     3.3752 </r>
       <r>    -3.9100     4.2526     3.4183 </r>
       <r>    -3.9000     4.1730     3.4605 </r>
       <r>    -3.8900     4.0936     3.5018 </r>
       <r>    -3.8800     4.0142     3.5423 </r>
       <r>    -3.8700     3.9350     3.5821 </r>
       <r>    -3.8600     3.8560     3.6210 </r>
       <r>    -3.8500     3.7770     3.6592 </r>
       <r>    -3.8400     3.6983     3.6966 </r>
       <r>    -3.8300     3.6196     3.7332 </r>
       <r>    -3.8200     3.5411     3.7690 </r>
       <r>    -3.8100     3.4627     3.8040 </r>
       <r>    -3.8000     3.3845     3.8382 </r>
       <r>    -3.7900     3.3064     3.8717 </r>
       <r>    -3.7800     3.2284     3.9044 </r>
       <r>    -3.7700     3.1506     3.9362 </r>
       <r>    -3.7600     3.0729     3.9674 </r>
       <r>    -3.7500     2.9953     3.9977 </r>
       <r>    -3.7400     2.1131     4.0696 </r>
       <r>    -3.7300     2.1265     4.0908 </r>
       <r>    -3.7200     2.1402     4.1121 </r>
       <r>    -3.7100     2.1543     4.1336 </r>
       <r>    -3.7000     2.1688     4.1552 </r>
       <r>    -3.6900     2.1836     4.1769 </r>
       <r>    -3.6800     2.1988     4.1988 </r>
       <r>    -3.6700     2.2144     4.2209 </r>
       <r>    -3.6600     2.2304     4.2431 </r>
       <r>    -3.6500     2.2468     4.2655 </r>
       <r>    -3.6400     2.2635     4.2881 </r>
       <r>    -3.6300     2.2806     4.3108 </r>
       <r>    -3.6200     2.2981     4.3337 </r>
       <r>    -3.6100     2.3159     4.3568 </r>
       <r>    -3.6000     2.3341     4.3800 </r>
       <r>    -3.5900     2.3527     4.4034 </r>
       <r>    -3.5800     2.3717     4.4271 </r>
       <r>    -3.5700     2.3911     4.4509 </r>
       <r>    -3.5600     2.4108     4.4749 </r>
       <r>    -3.5500     2.4309     4.4991 </r>
       <r>    -3.5400     2.4514     4.5235 </r>
       <r>    -3.5300     2.4722     4.5481 </r>
       <r>    -3.5200     2.4935     4.5729 </r>
       <r>    -3.5100     2.5151     4.5980 </r>
       <r>    -3.5000     2.5371     4.6233 </r>
       <r>    -3.4900     2.5594     4.6487 </r>
       <r>    -3.4800     2.5821     4.6744 </r>
       <r>    -3.4700     2.6053     4.7004 </r>
       <r>    -3.4600     2.6287     4.7265 </r>
       <r>    -3.4500     2.6526     4.7530 </r>
       <r>    -3.4400     2.6768     4.7796 </r>
       <r>    -3.4300     2.7014     4.8065 </r>
       <r>    -3.4200     2.7264     4.8336 </r>
       <r>    -3.4100     3.9231     4.8636 </r>
       <r>    -3.4000     4.1520     4.9040 </r>
       <r>    -3.3900     4.3663     4.9466 </r>
       <r>    -3.3800     4.5661     4.9913 </r>
       <r>    -3.3700     4.7514     5.0379 </r>
       <r>    -3.3600     4.9222     5.0863 </r>
       <r>    -3.3500     5.0784     5.1363 </r>
       <r>    -3.3400     5.2201     5.1878 </r>
       <r>    -3.3300     3.9142     5.2281 </r>
       <r>    -3.3200     3.8941     5.2672 </r>
       <r>    -3.3100     3.8510     5.3059 </r>
       <r>    -3.3000     3.7893     5.3441 </r>
       <r>    -3.2900     3.7487     5.3818 </r>
       <r>    -3.2800     3.7163     5.4191 </r>
       <r>    -3.2700     3.6923     5.4561 </r>
       <r>    -3.2600     3.6766     5.4930 </r>
       <r>    -3.2500     3.6692     5.5297 </r>
       <r>    -3.2400     3.6702     5.5664 </r>
       <r>    -3.2300     3.6795     5.6031 </r>
       <r>    -3.2200     3.6971     5.6400 </r>
       <r>    -3.2100     3.7176     5.6771 </r>
       <r>    -3.2000     3.7348     5.7143 </r>
       <r>    -3.1900     3.7488     5.7518 </r>
       <r>    -3.1800     3.7595     5.7893 </r>
       <r>    -3.1700     3.7668     5.8269 </r>
       <r>    -3.1600     3.7709     5.8646 </r>
       <r>    -3.1500     3.7717     5.9024 </r>
[...]
        <r>  0.0335  0.0005  0.0153  0.0005  0.0000  0.0000  0.0000  0.0000  0.0000 </r>
        <r>  0.0335  0.0005  0.0153  0.0005  0.0000  0.0000  0.0000  0.0000  0.0000 </r>
        <r>  0.0335  0.0005  0.0153  0.0005  0.0000  0.0000  0.0000  0.0000  0.0000 </r>
        <r>  0.0335  0.0005  0.0154  0.0005  0.0000  0.0000  0.0000  0.0000  0.0000 </r>
        <r>  0.0335  0.0005  0.0153  0.0005  0.0000  0.0000  0.0000  0.0000  0.0000 </r>
        <r>  0.0335  0.0005  0.0153  0.0005  0.0000  0.0000  0.0000  0.0000  0.0000 </r>
       </set>
       <set comment="band 19">
        <r>  0.0272  0.0072  0.0096  0.0109  0.0000  0.0000  0.0000  0.0000  0.0000 </r>
        <r>  0.0086  0.0095  0.0030  0.0004  0.0000  0.0000  0.0000  0.0000  0.0000 </r>
        <r>  0.0086  0.0095  0.0030  0.0004  0.0000  0.0000  0.0000  0.0000  0.0000 </r>
        <r>  0.0272  0.0072  0.0096  0.0109  0.0000  0.0000  0.0000  0.0000  0.0000 </r>
        <r>  0.0272  0.0136  0.0096  0.0046  0.0000  0.0000  0.0000  0.0000  0.0000 </r>
        <r>  0.0086  0.0031  0.0030  0.0068  0.0000  0.0000  0.0000  0.0000  0.0000 </r>
        <r>  0.0086  0.0031  0.0030  0.0068  0.0000  0.0000  0.0000  0.0000  0.0000 </r>
        <r>  0.0272  0.0136  0.0096  0.0045  0.0000  0.0000  0.0000  0.0000  0.0000 </r>
       </set>
       <set comment="band 20">
        <r>  0.0085  0.0067  0.0029  0.0030  0.0000  0.0000  0.0000  0.0000  0.0000 </r>
        <r>  0.0276  0.0045  0.0096  0.0135  0.0000  0.0000  0.0000  0.0000  0.0000 </r>
        <r>  0.0276  0.0045  0.0096  0.0135  0.0000  0.0000  0.0000  0.0000  0.0000 </r>
        <r>  0.0085  0.0067  0.0029  0.0030  0.0000  0.0000  0.0000  0.0000  0.0000 </r>
        <r>  0.0083  0.0004  0.0030  0.0096  0.0000  0.0000  0.0000  0.0000  0.0000 </r>
        <r>  0.0274  0.0110  0.0098  0.0072  0.0000  0.0000  0.0000  0.0000  0.0000 </r>
        <r>  0.0274  0.0110  0.0098  0.0072  0.0000  0.0000  0.0000  0.0000  0.0000 </r>
        <r>  0.0083  0.0004  0.0030  0.0096  0.0000  0.0000  0.0000  0.0000  0.0000 </r>
       </set>
       <set comment="band 21">
        <r>  0.0069  0.0075  0.0099  0.0035  0.0000  0.0000  0.0000  0.0000  0.0000 </r>
        <r>  0.0080  0.0015  0.0115  0.0102  0.0000  0.0000  0.0000  0.0000  0.0000 </r>
        <r>  0.0080  0.0012  0.0114  0.0108  0.0000  0.0000  0.0000  0.0000  0.0000 </r>
        <r>  0.0069  0.0075  0.0099  0.0032  0.0000  0.0000  0.0000  0.0000  0.0000 </r>
        <r>  0.0070  0.0008  0.0100  0.0102  0.0000  0.0000  0.0000  0.0000  0.0000 </r>
        <r>  0.0080  0.0083  0.0114  0.0037  0.0000  0.0000  0.0000  0.0000  0.0000 </r>
        <r>  0.0080  0.0077  0.0115  0.0040  0.0000  0.0000  0.0000  0.0000  0.0000 </r>
        <r>  0.0069  0.0009  0.0098  0.0098  0.0000  0.0000  0.0000  0.0000  0.0000 </r>
       </set>
      </set>
      <set comment="kpoint 10">
       <set comment="band 1">
        <r>  0.0540  0.0013  0.0013  0.0013  0.0000  0.0000  0.0000  0.0000  0.0000 </r>
        <r>  0.0540  0.0013  0.0013  0.0013  0.0000  0.0000  0.0000  0.0000  0.0000 </r>
        <r>  0.0540  0.0013  0.0013  0.0013  0.0000  0.0000  0.0000  0.0000  0.0000 </r>
        <r>  0.0540  0.0013  0.0013  0.0013  0.0000  0.0000  0.0000  0.0000  0.0000 </r>
        <r>  0.0540  0.0013  0.0013  0.0013  0.0000  0.0000  0.0000  0.0000  0.0000 </r>
        <r>  0.0540  0.0013  0.0013  0.0013  0.0000  0.0000  0.0000  0.0000  0.0000 </r>
        <r>  0.0540  0.0013  0.0013  0.0013  0.0000  0.0000  0.0000  0.0000  0.0000 </r>
        <r>  0.0540  0.0013  0.0013  0.0013  0.0000  0.0000  0.0000  0.0000  0.0000 </r>
       </set>
       <set comment="band 2">
        <r>  0.0677  0.0014  0.0019  0.0005  0.0000  0.0000  0.0000  0.0000  0.0000 </r>
        <r>  0.0538  0.0012  0.0007  0.0021  0.0000  0.0000  0.0000  0.0000  0.0000 </r>
        <r>  0.0255  0.0017  0.0009  0.0021  0.0000  0.0000  0.0000  0.0000  0.0000 </r>
        <r>  0.0758  0.0026  0.0009  0.0001  0.0000  0.0000  0.0000  0.0000  0.0000 </r>
        <r>  0.0677  0.0008  0.0011  0.0019  0.0000  0.0000  0.0000  0.0000  0.0000 </r>
        <r>  0.0538  0.0030  0.0003  0.0008  0.0000  0.0000  0.0000  0.0000  0.0000 </r>
        <r>  0.0255  0.0023  0.0013  0.0012  0.0000  0.0000  0.0000  0.0000  0.0000 </r>
        <r>  0.0758  0.0008  0.0017  0.0011  0.0000  0.0000  0.0000  0.0000  0.0000 </r>
       </set>
       <set comment="band 3">
        <r>  0.0562  0.0014  0.0015  0.0011  0.0000  0.0000  0.0000  0.0000  0.0000 </r>
        <r>  0.0518  0.0015  0.0017  0.0009  0.0000  0.0000  0.0000  0.0000  0.0000 </r>
        <r>  0.0550  0.0007  0.0020  0.0013  0.0000  0.0000  0.0000  0.0000  0.0000 </r>
        <r>  0.0597  0.0006  0.0024  0.0009  0.0000  0.0000  0.0000  0.0000  0.0000 </r>
        <r>  0.0562  0.0007  0.0025  0.0008  0.0000  0.0000  0.0000  0.0000  0.0000 </r>
        <r>  0.0518  0.0008  0.0021  0.0012  0.0000  0.0000  0.0000  0.0000  0.0000 </r>
        <r>  0.0550  0.0015  0.0016  0.0010  0.0000  0.0000  0.0000  0.0000  0.0000 </r>
        <r>  0.0597  0.0014  0.0014  0.0012  0.0000  0.0000  0.0000  0.0000  0.0000 </r>
       </set>
       <set comment="band 4">
        <r>  0.0432  0.0012  0.0007  0.0024  0.0000  0.0000  0.0000  0.0000  0.0000 </r>
        <r>  0.0614  0.0013  0.0017  0.0010  0.0000  0.0000  0.0000  0.0000  0.0000 </r>
        <r>  0.0866  0.0016  0.0011  0.0006  0.0000  0.0000  0.0000  0.0000  0.0000 </r>
        <r>  0.0315  0.0008  0.0007  0.0030  0.0000  0.0000  0.0000  0.0000  0.0000 </r>
        <r>  0.0432  0.0025  0.0005  0.0013  0.0000  0.0000  0.0000  0.0000  0.0000 </r>
        <r>  0.0614  0.0002  0.0016  0.0020  0.0000  0.0000  0.0000  0.0000  0.0000 </r>
        <r>  0.0866  0.0003  0.0011  0.0019  0.0000  0.0000  0.0000  0.0000  0.0000 </r>
        <r>  0.0315  0.0019  0.0009  0.0018  0.0000  0.0000  0.0000  0.0000  0.0000 </r>
       </set>
       <set comment="band 5">
        <r>  0.0311  0.0042  0.0104  0.0074  0.0000  0.0000  0.0000  0.0000  0.0000 </r>
        <r>  0.0275  0.0090  0.0042  0.0098  0.0000  0.0000  0.0000  0.0000  0.0000 </r>
        <r>  0.0135  0.0087  0.0078  0.0105  0.0000  0.0000  0.0000  0.0000  0.0000 </r>
        <r>  0.0341  0.0089  0.0087  0.0035  0.0000  0.0000  0.0000  0.0000  0.0000 </r>
        <r>  0.0311  0.0036  0.0096  0.0088  0.0000  0.0000  0.0000  0.0000  0.0000 </r>
        <r>  0.0275  0.0108  0.0038  0.0084  0.0000  0.0000  0.0000  0.0000  0.0000 </r>
        <r>  0.0135  0.0093  0.0083  0.0094  0.0000  0.0000  0.0000  0.0000  0.0000 </r>
        <r>  0.0341  0.0071  0.0096  0.0045  0.0000  0.0000  0.0000  0.0000  0.0000 </r>
       </set>
       <set comment="band 6">
        <r>  0.0036  0.0032  0.0128  0.0138  0.0000  0.0000  0.0000  0.0000  0.0000 </r>
        <r>  0.0467  0.0143  0.0024  0.0009  0.0000  0.0000  0.0000  0.0000  0.0000 </r>
        <r>  0.0104  0.0009  0.0143  0.0127  0.0000  0.0000  0.0000  0.0000  0.0000 </r>
        <r>  0.0455  0.0128  0.0015  0.0036  0.0000  0.0000  0.0000  0.0000  0.0000 </r>
        <r>  0.0036  0.0028  0.0136  0.0134  0.0000  0.0000  0.0000  0.0000  0.0000 </r>
        <r>  0.0467  0.0124  0.0038  0.0013  0.0000  0.0000  0.0000  0.0000  0.0000 </r>
        <r>  0.0104  0.0012  0.0129  0.0138  0.0000  0.0000  0.0000  0.0000  0.0000 </r>
        <r>  0.0455  0.0147  0.0007  0.0026  0.0000  0.0000  0.0000  0.0000  0.0000 </r>
       </set>
       <set comment="band 7">
        <r>  0.0451  0.0159  0.0000  0.0021  0.0000  0.0000  0.0000  0.0000  0.0000 </r>
        <r>  0.0054  0.0000  0.0167  0.0126  0.0000  0.0000  0.0000  0.0000  0.0000 </r>
        <r>  0.0558  0.0137  0.0012  0.0001  0.0000  0.0000  0.0000  0.0000  0.0000 </r>
        <r>  0.0000  0.0016  0.0131  0.0162  0.0000  0.0000  0.0000  0.0000  0.0000 </r>
        <r>  0.0451  0.0168  0.0001  0.0011  0.0000  0.0000  0.0000  0.0000  0.0000 </r>
        <r>  0.0054  0.0000  0.0158  0.0136  0.0000  0.0000  0.0000  0.0000  0.0000 </r>
        <r>  0.0558  0.0128  0.0021  0.0000  0.0000  0.0000  0.0000  0.0000  0.0000 </r>
        <r>  0.0000  0.0016  0.0131  0.0162  0.0000  0.0000  0.0000  0.0000  0.0000 </r>
       </set>
       <set comment="band 8">
        <r>  0.0265  0.0081  0.0081  0.0081  0.0000  0.0000  0.0000  0.0000  0.0000 </r>
        <r>  0.0265  0.0081  0.0081  0.0081  0.0000  0.0000  0.0000  0.0000  0.0000 </r>
        <r>  0.0265  0.0081  0.0081  0.0081  0.0000  0.0000  0.0000  0.0000  0.0000 </r>
        <r>  0.0265  0.0081  0.0081  0.0081  0.0000  0.0000  0.0000  0.0000  0.0000 </r>
        <r>  0.0265  0.0081  0.0081  0.0081  0.0000  0.0000  0.0000  0.0000  0.0000 </r>
        <r>  0.0265  0.0081  0.0081  0.0081  0.0000  0.0000  0.0000  0.0000  0.0000 </r>
        <r>  0.0265  0.0081  0.0081  0.0081  0.0000  0.0000  0.0000  0.0000  0.0000 </r>
        <r>  0.0265  0.0081  0.0081  0.0081  0.0000  0.0000  0.0000  0.0000  0.0000 </r>
       </set>
       <set comment="band 9">
        <r>  0.0140  0.0137  0.0351  0.0199  0.0000  0.0000  0.0000  0.0000  0.0000 </r>
        <r>  0.0019  0.0020  0.0104  0.0046  0.0000  0.0000  0.0000  0.0000  0.0000 </r>
        <r>  0.0153  0.0150  0.0375  0.0217  0.0000  0.0000  0.0000  0.0000  0.0000 </r>
        <r>  0.0021  0.0019  0.0117  0.0043  0.0000  0.0000  0.0000  0.0000  0.0000 </r>
        <r>  0.0140  0.0129  0.0313  0.0246  0.0000  0.0000  0.0000  0.0000  0.0000 </r>
        <r>  0.0019  0.0015  0.0155  0.0000  0.0000  0.0000  0.0000  0.0000  0.0000 </r>
        <r>  0.0153  0.0158  0.0324  0.0260  0.0000  0.0000  0.0000  0.0000  0.0000 </r>
        <r>  0.0021  0.0023  0.0155  0.0000  0.0000  0.0000  0.0000  0.0000  0.0000 </r>
       </set>
       <set comment="band 10">
        <r>  0.0013  0.0067  0.0024  0.0055  0.0000  0.0000  0.0000  0.0000  0.0000 </r>
        <r>  0.0146  0.0123  0.0252  0.0335  0.0000  0.0000  0.0000  0.0000  0.0000 </r>
        <r>  0.0053  0.0092  0.0014  0.0210  0.0000  0.0000  0.0000  0.0000  0.0000 </r>
        <r>  0.0121  0.0232  0.0179  0.0195  0.0000  0.0000  0.0000  0.0000  0.0000 </r>
        <r>  0.0013  0.0027  0.0002  0.0117  0.0000  0.0000  0.0000  0.0000  0.0000 </r>
        <r>  0.0146  0.0272  0.0166  0.0272  0.0000  0.0000  0.0000  0.0000  0.0000 </r>
        <r>  0.0053  0.0133  0.0100  0.0083  0.0000  0.0000  0.0000  0.0000  0.0000 </r>
        <r>  0.0121  0.0083  0.0201  0.0321  0.0000  0.0000  0.0000  0.0000  0.0000 </r>
       </set>
       <set comment="band 11">
        <r>  0.0096  0.0241  0.0069  0.0191  0.0000  0.0000  0.0000  0.0000  0.0000 </r>
        <r>  0.0085  0.0302  0.0089  0.0063  0.0000  0.0000  0.0000  0.0000  0.0000 </r>
        <r>  0.0043  0.0202  0.0055  0.0018  0.0000  0.0000  0.0000  0.0000  0.0000 </r>
        <r>  0.0108  0.0194  0.0149  0.0207  0.0000  0.0000  0.0000  0.0000  0.0000 </r>
        <r>  0.0096  0.0289  0.0130  0.0081  0.0000  0.0000  0.0000  0.0000  0.0000 </r>
        <r>  0.0085  0.0157  0.0124  0.0173  0.0000  0.0000  0.0000  0.0000  0.0000 </r>
        <r>  0.0043  0.0154  0.0020  0.0101  0.0000  0.0000  0.0000  0.0000  0.0000 </r>
        <r>  0.0108  0.0338  0.0088  0.0123  0.0000  0.0000  0.0000  0.0000  0.0000 </r>
       </set>
       <set comment="band 12">
        <r>  0.0000  0.0137  0.0379  0.0122  0.0000  0.0000  0.0000  0.0000  0.0000 </r>
        <r>  0.0000  0.0277  0.0137  0.0122  0.0000  0.0000  0.0000  0.0000  0.0000 </r>
        <r>  0.0000  0.0137  0.0137  0.0023  0.0000  0.0000  0.0000  0.0000  0.0000 </r>
        <r>  0.0000  0.0277  0.0379  0.0023  0.0000  0.0000  0.0000  0.0000  0.0000 </r>
        <r>  0.0000  0.0137  0.0379  0.0122  0.0000  0.0000  0.0000  0.0000  0.0000 </r>
        <r>  0.0000  0.0277  0.0137  0.0122  0.0000  0.0000  0.0000  0.0000  0.0000 </r>
        <r>  0.0000  0.0137  0.0137  0.0023  0.0000  0.0000  0.0000  0.0000  0.0000 </r>
        <r>  0.0000  0.0277  0.0379  0.0023  0.0000  0.0000  0.0000  0.0000  0.0000 </r>
       </set>
       <set comment="band 13">
        <r>  0.0000  0.0354  0.0099  0.0261  0.0000  0.0000  0.0000  0.0000  0.0000 </r>
        <r>  0.0000  0.0030  0.0143  0.0261  0.0000  0.0000  0.0000  0.0000  0.0000 </r>
        <r>  0.0000  0.0354  0.0143  0.0188  0.0000  0.0000  0.0000  0.0000  0.0000 </r>
        <r>  0.0000  0.0030  0.0099  0.0188  0.0000  0.0000  0.0000  0.0000  0.0000 </r>
        <r>  0.0000  0.0354  0.0099  0.0261  0.0000  0.0000  0.0000  0.0000  0.0000 </r>
        <r>  0.0000  0.0030  0.0143  0.0261  0.0000  0.0000  0.0000  0.0000  0.0000 </r>
        <r>  0.0000  0.0354  0.0143  0.0188  0.0000  0.0000  0.0000  0.0000  0.0000 </r>
        <r>  0.0000  0.0030  0.0099  0.0188  0.0000  0.0000  0.0000  0.0000  0.0000 </r>
       </set>
       <set comment="band 14">
        <r>  0.0000  0.0046  0.0059  0.0155  0.0000  0.0000  0.0000  0.0000  0.0000 </r>
        <r>  0.0000  0.0231  0.0257  0.0155  0.0000  0.0000  0.0000  0.0000  0.0000 </r>
        <r>  0.0000  0.0046  0.0257  0.0326  0.0000  0.0000  0.0000  0.0000  0.0000 </r>
        <r>  0.0000  0.0231  0.0059  0.0326  0.0000  0.0000  0.0000  0.0000  0.0000 </r>
        <r>  0.0000  0.0046  0.0059  0.0155  0.0000  0.0000  0.0000  0.0000  0.0000 </r>
        <r>  0.0000  0.0231  0.0257  0.0155  0.0000  0.0000  0.0000  0.0000  0.0000 </r>
        <r>  0.0000  0.0046  0.0257  0.0326  0.0000  0.0000  0.0000  0.0000  0.0000 </r>
        <r>  0.0000  0.0231  0.0059  0.0326  0.0000  0.0000  0.0000  0.0000  0.0000 </r>
       </set>
       <set comment="band 15">
        <r>  0.0000  0.0269  0.0006  0.0275  0.0000  0.0000  0.0000  0.0000  0.0000 </r>
        <r>  0.0000  0.0269  0.0006  0.0275  0.0000  0.0000  0.0000  0.0000  0.0000 </r>
        <r>  0.0000  0.0269  0.0006  0.0275  0.0000  0.0000  0.0000  0.0000  0.0000 </r>
        <r>  0.0000  0.0269  0.0006  0.0275  0.0000  0.0000  0.0000  0.0000  0.0000 </r>
        <r>  0.0000  0.0269  0.0006  0.0275  0.0000  0.0000  0.0000  0.0000  0.0000 </r>
        <r>  0.0000  0.0269  0.0006  0.0275  0.0000  0.0000  0.0000  0.0000  0.0000 </r>
        <r>  0.0000  0.0269  0.0006  0.0275  0.0000  0.0000  0.0000  0.0000  0.0000 </r>
        <r>  0.0000  0.0269  0.0006  0.0275  0.0000  0.0000  0.0000  0.0000  0.0000 </r>
       </set>
       <set comment="band 16">
        <r>  0.0000  0.0098  0.0361  0.0092  0.0000  0.0000  0.0000  0.0000  0.0000 </r>
        <r>  0.0000  0.0098  0.0361  0.0092  0.0000  0.0000  0.0000  0.0000  0.0000 </r>
        <r>  0.0000  0.0098  0.0361  0.0092  0.0000  0.0000  0.0000  0.0000  0.0000 </r>
        <r>  0.0000  0.0098  0.0361  0.0092  0.0000  0.0000  0.0000  0.0000  0.0000 </r>
        <r>  0.0000  0.0098  0.0361  0.0092  0.0000  0.0000  0.0000  0.0000  0.0000 </r>
        <r>  0.0000  0.0098  0.0361  0.0092  0.0000  0.0000  0.0000  0.0000  0.0000 </r>
        <r>  0.0000  0.0098  0.0361  0.0092  0.0000  0.0000  0.0000  0.0000  0.0000 </r>
        <r>  0.0000  0.0098  0.0361  0.0092  0.0000  0.0000  0.0000  0.0000  0.0000 </r>
       </set>
       <set comment="band 17">
        <r>  0.0457  0.0020  0.0020  0.0020  0.0000  0.0000  0.0000  0.0000  0.0000 </r>
        <r>  0.0457  0.0020  0.0020  0.0020  0.0000  0.0000  0.0000  0.0000  0.0000 </r>
        <r>  0.0457  0.0020  0.0020  0.0020  0.0000  0.0000  0.0000  0.0000  0.0000 </r>
        <r>  0.0457  0.0020  0.0020  0.0020  0.0000  0.0000  0.0000  0.0000  0.0000 </r>
        <r>  0.0457  0.0020  0.0020  0.0020  0.0000  0.0000  0.0000  0.0000  0.0000 </r>
        <r>  0.0457  0.0020  0.0020  0.0020  0.0000  0.0000  0.0000  0.0000  0.0000 </r>
        <r>  0.0457  0.0020  0.0020  0.0020  0.0000  0.0000  0.0000  0.0000  0.0000 </r>
        <r>  0.0457  0.0020  0.0020  0.0020  0.0000  0.0000  0.0000  0.0000  0.0000 </r>
       </set>
       <set comment="band 18">
        <r>  0.0395  0.0109  0.0036  0.0012  0.0000  0.0000  0.0000  0.0000  0.0000 </r>
        <r>  0.0301  0.0053  0.0026  0.0063  0.0000  0.0000  0.0000  0.0000  0.0000 </r>
        <r>  0.0129  0.0069  0.0001  0.0046  0.0000  0.0000  0.0000  0.0000  0.0000 </r>
        <r>  0.0437  0.0133  0.0006  0.0025  0.0000  0.0000  0.0000  0.0000  0.0000 </r>
        <r>  0.0395  0.0085  0.0003  0.0069  0.0000  0.0000  0.0000  0.0000  0.0000 </r>
        <r>  0.0301  0.0125  0.0011  0.0007  0.0000  0.0000  0.0000  0.0000  0.0000 </r>
        <r>  0.0129  0.0093  0.0016  0.0006  0.0000  0.0000  0.0000  0.0000  0.0000 </r>
        <r>  0.0437  0.0061  0.0038  0.0064  0.0000  0.0000  0.0000  0.0000  0.0000 </r>
       </set>
       <set comment="band 19">
        <r>  0.0399  0.0019  0.0108  0.0030  0.0000  0.0000  0.0000  0.0000  0.0000 </r>
        <r>  0.0055  0.0006  0.0084  0.0014  0.0000  0.0000  0.0000  0.0000  0.0000 </r>
        <r>  0.0645  0.0025  0.0128  0.0043  0.0000  0.0000  0.0000  0.0000  0.0000 </r>
        <r>  0.0163  0.0008  0.0099  0.0014  0.0000  0.0000  0.0000  0.0000  0.0000 </r>
        <r>  0.0399  0.0010  0.0113  0.0035  0.0000  0.0000  0.0000  0.0000  0.0000 </r>
        <r>  0.0055  0.0001  0.0093  0.0010  0.0000  0.0000  0.0000  0.0000  0.0000 </r>
        <r>  0.0645  0.0034  0.0120  0.0043  0.0000  0.0000  0.0000  0.0000  0.0000 </r>
        <r>  0.0163  0.0012  0.0094  0.0014  0.0000  0.0000  0.0000  0.0000  0.0000 </r>
       </set>
       <set comment="band 20">
        <r>  0.0152  0.0017  0.0001  0.0102  0.0000  0.0000  0.0000  0.0000  0.0000 </r>
        <r>  0.0590  0.0086  0.0034  0.0068  0.0000  0.0000  0.0000  0.0000  0.0000 </r>
        <r>  0.0173  0.0051  0.0016  0.0056  0.0000  0.0000  0.0000  0.0000  0.0000 </r>
        <r>  0.0347  0.0004  0.0040  0.0106  0.0000  0.0000  0.0000  0.0000  0.0000 </r>
        <r>  0.0152  0.0050  0.0028  0.0041  0.0000  0.0000  0.0000  0.0000  0.0000 </r>
        <r>  0.0590  0.0018  0.0041  0.0128  0.0000  0.0000  0.0000  0.0000  0.0000 </r>
        <r>  0.0173  0.0018  0.0009  0.0096  0.0000  0.0000  0.0000  0.0000  0.0000 </r>
        <r>  0.0347  0.0071  0.0012  0.0066  0.0000  0.0000  0.0000  0.0000  0.0000 </r>
       </set>
       <set comment="band 21">
        <r>  0.0067  0.0103  0.0081  0.0086  0.0000  0.0000  0.0000  0.0000  0.0000 </r>
        <r>  0.0056  0.0090  0.0061  0.0073  0.0000  0.0000  0.0000  0.0000  0.0000 </r>
        <r>  0.0027  0.0061  0.0036  0.0018  0.0000  0.0000  0.0000  0.0000  0.0000 </r>
        <r>  0.0076  0.0116  0.0079  0.0104  0.0000  0.0000  0.0000  0.0000  0.0000 </r>
        <r>  0.0067  0.0100  0.0077  0.0090  0.0000  0.0000  0.0000  0.0000  0.0000 </r>
        <r>  0.0056  0.0096  0.0064  0.0068  0.0000  0.0000  0.0000  0.0000  0.0000 </r>
        <r>  0.0027  0.0039  0.0027  0.0045  0.0000  0.0000  0.0000  0.0000  0.0000 </r>
        <r>  0.0076  0.0135  0.0089  0.0079  0.0000  0.0000  0.0000  0.0000  0.0000 </r>
       </set>
      </set>
     </set>
    </set>
   </array>
  </projected>
 </calculation>
 <structure name="finalpos" >
  <crystal>
   <varray name="basis" >
    <v>       5.43101000       0.00000000       0.00000000 </v>
    <v>       0.00000000       5.43101000       0.00000000 </v>
    <v>       0.00000000       0.00000000       5.43101000 </v>
   </varray>
   <i name="volume">    160.19236287 </i>
   <varray name="rec_basis" >
    <v>       0.18412781       0.00000000       0.00000000 </v>
    <v>       0.00000000       0.18412781       0.00000000 </v>
    <v>       0.00000000       0.00000000       0.18412781 </v>
   </varray>
  </crystal>
  <varray name="positions" >
   <v>       0.00000000       0.00000000       0.00000000 </v>
   <v>       0.00000000       0.50000000       0.50000000 </v>
   <v>       0.50000000       0.00000000       0.50000000 </v>
   <v>       0.50000000       0.50000000       0.00000000 </v>
   <v>       0.25000000       0.25000000       0.25000000 </v>
   <v>       0.25000000       0.75000000       0.75000000 </v>
   <v>       0.75000000       0.25000000       0.75000000 </v>
   <v>       0.75000000       0.75000000       0.25000000 </v>
  </varray>
 </structure>
</modeling>
